<?xml version="1.0"?>
<VTKFile type="UnstructuredGrid" version="0.1" byte_order="LittleEndian">
  <UnstructuredGrid>
    <FieldData>
      <DataArray type="Float32" Name="TIME"  NumberOfTuples="1" format="ascii"> 0.0000000000 </DataArray>
      <DataArray type="Int32"   Name="STEP"  NumberOfTuples="1" format="ascii"> 0 </DataArray>
    </FieldData>
    <Piece NumberOfPoints="128" NumberOfCells="128">
      <Points>
        <DataArray type="Float32" NumberOfComponents="3" format="ascii">
 0.0125000000 0.0125000000 0.0125000000 0.0125000000 0.0125000000 0.0375000000 0.0125000000 0.0125000000 0.0625000000 0.0125000000 0.0125000000 0.0875000000 0.0125000000 0.0375000000 0.0125000000 0.0125000000 0.0375000000 0.0375000000 0.0125000000 0.0375000000 0.0625000000 0.0125000000 0.0375000000 0.0875000000 0.0125000000 0.0625000000 0.0125000000 0.0125000000 0.0625000000 0.0375000000 0.0125000000 0.0625000000 0.0625000000 0.0125000000 0.0625000000 0.0875000000 0.0125000000 0.0875000000 0.0125000000 0.0125000000 0.0875000000 0.0375000000 0.0125000000 0.0875000000 0.0625000000 0.0125000000 0.0875000000 0.0875000000 0.0125000000 0.1125000000 0.0125000000 0.0125000000 0.1125000000 0.0375000000 0.0125000000 0.1125000000 0.0625000000 0.0125000000 0.1125000000 0.0875000000 0.0125000000 0.1375000000 0.0125000000 0.0125000000 0.1375000000 0.0375000000 0.0125000000 0.1375000000 0.0625000000 0.0125000000 0.1375000000 0.0875000000 0.0125000000 0.1625000000 0.0125000000 0.0125000000 0.1625000000 0.0375000000 0.0125000000 0.1625000000 0.0625000000 0.0125000000 0.1625000000 0.0875000000 0.0125000000 0.1875000000 0.0125000000 0.0125000000 0.1875000000 0.0375000000 0.0125000000 0.1875000000 0.0625000000 0.0125000000 0.1875000000 0.0875000000 0.0375000000 0.0125000000 0.0125000000 0.0375000000 0.0125000000 0.0375000000 0.0375000000 0.0125000000 0.0625000000 0.0375000000 0.0125000000 0.0875000000 0.0375000000 0.0375000000 0.0125000000 0.0375000000 0.0375000000 0.0375000000 0.0375000000 0.0375000000 0.0625000000 0.0375000000 0.0375000000 0.0875000000 0.0375000000 0.0625000000 0.0125000000 0.0375000000 0.0625000000 0.0375000000 0.0375000000 0.0625000000 0.0625000000 0.0375000000 0.0625000000 0.0875000000 0.0375000000 0.0875000000 0.0125000000 0.0375000000 0.0875000000 0.0375000000 0.0375000000 0.0875000000 0.0625000000 0.0375000000 0.0875000000 0.0875000000 0.0375000000 0.1125000000 0.0125000000 0.0375000000 0.1125000000 0.0375000000 0.0375000000 0.1125000000 0.0625000000 0.0375000000 0.1125000000 0.0875000000 0.0375000000 0.1375000000 0.0125000000 0.0375000000 0.1375000000 0.0375000000 0.0375000000 0.1375000000 0.0625000000 0.0375000000 0.1375000000 0.0875000000 0.0375000000 0.1625000000 0.0125000000 0.0375000000 0.1625000000 0.0375000000 0.0375000000 0.1625000000 0.0625000000 0.0375000000 0.1625000000 0.0875000000 0.0375000000 0.1875000000 0.0125000000 0.0375000000 0.1875000000 0.0375000000 0.0375000000 0.1875000000 0.0625000000 0.0375000000 0.1875000000 0.0875000000 0.0625000000 0.0125000000 0.0125000000 0.0625000000 0.0125000000 0.0375000000 0.0625000000 0.0125000000 0.0625000000 0.0625000000 0.0125000000 0.0875000000 0.0625000000 0.0375000000 0.0125000000 0.0625000000 0.0375000000 0.0375000000 0.0625000000 0.0375000000 0.0625000000 0.0625000000 0.0375000000 0.0875000000 0.0625000000 0.0625000000 0.0125000000 0.0625000000 0.0625000000 0.0375000000 0.0625000000 0.0625000000 0.0625000000 0.0625000000 0.0625000000 0.0875000000 0.0625000000 0.0875000000 0.0125000000 0.0625000000 0.0875000000 0.0375000000 0.0625000000 0.0875000000 0.0625000000 0.0625000000 0.0875000000 0.0875000000 0.0625000000 0.1125000000 0.0125000000 0.0625000000 0.1125000000 0.0375000000 0.0625000000 0.1125000000 0.0625000000 0.0625000000 0.1125000000 0.0875000000 0.0625000000 0.1375000000 0.0125000000 0.0625000000 0.1375000000 0.0375000000 0.0625000000 0.1375000000 0.0625000000 0.0625000000 0.1375000000 0.0875000000 0.0625000000 0.1625000000 0.0125000000 0.0625000000 0.1625000000 0.0375000000 0.0625000000 0.1625000000 0.0625000000 0.0625000000 0.1625000000 0.0875000000 0.0625000000 0.1875000000 0.0125000000 0.0625000000 0.1875000000 0.0375000000 0.0625000000 0.1875000000 0.0625000000 0.0625000000 0.1875000000 0.0875000000 0.0875000000 0.0125000000 0.0125000000 0.0875000000 0.0125000000 0.0375000000 0.0875000000 0.0125000000 0.0625000000 0.0875000000 0.0125000000 0.0875000000 0.0875000000 0.0375000000 0.0125000000 0.0875000000 0.0375000000 0.0375000000 0.0875000000 0.0375000000 0.0625000000 0.0875000000 0.0375000000 0.0875000000 0.0875000000 0.0625000000 0.0125000000 0.0875000000 0.0625000000 0.0375000000 0.0875000000 0.0625000000 0.0625000000 0.0875000000 0.0625000000 0.0875000000 0.0875000000 0.0875000000 0.0125000000 0.0875000000 0.0875000000 0.0375000000 0.0875000000 0.0875000000 0.0625000000 0.0875000000 0.0875000000 0.0875000000 0.0875000000 0.1125000000 0.0125000000 0.0875000000 0.1125000000 0.0375000000 0.0875000000 0.1125000000 0.0625000000 0.0875000000 0.1125000000 0.0875000000 0.0875000000 0.1375000000 0.0125000000 0.0875000000 0.1375000000 0.0375000000 0.0875000000 0.1375000000 0.0625000000 0.0875000000 0.1375000000 0.0875000000 0.0875000000 0.1625000000 0.0125000000 0.0875000000 0.1625000000 0.0375000000 0.0875000000 0.1625000000 0.0625000000 0.0875000000 0.1625000000 0.0875000000 0.0875000000 0.1875000000 0.0125000000 0.0875000000 0.1875000000 0.0375000000 0.0875000000 0.1875000000 0.0625000000 0.0875000000 0.1875000000 0.0875000000
        </DataArray>
      </Points>
      <Cells>
        <DataArray type="Int32" Name="connectivity" format="ascii">
 0 1 2 3 4 5 6 7 8 9 10 11 12 13 14 15 16 17 18 19 20 21 22 23 24 25 26 27 28 29 30 31 32 33 34 35 36 37 38 39 40 41 42 43 44 45 46 47 48 49 50 51 52 53 54 55 56 57 58 59 60 61 62 63 64 65 66 67 68 69 70 71 72 73 74 75 76 77 78 79 80 81 82 83 84 85 86 87 88 89 90 91 92 93 94 95 96 97 98 99 100 101 102 103 104 105 106 107 108 109 110 111 112 113 114 115 116 117 118 119 120 121 122 123 124 125 126 127
        </DataArray>
        <DataArray type="Int32" Name="offsets" format="ascii">
 1 2 3 4 5 6 7 8 9 10 11 12 13 14 15 16 17 18 19 20 21 22 23 24 25 26 27 28 29 30 31 32 33 34 35 36 37 38 39 40 41 42 43 44 45 46 47 48 49 50 51 52 53 54 55 56 57 58 59 60 61 62 63 64 65 66 67 68 69 70 71 72 73 74 75 76 77 78 79 80 81 82 83 84 85 86 87 88 89 90 91 92 93 94 95 96 97 98 99 100 101 102 103 104 105 106 107 108 109 110 111 112 113 114 115 116 117 118 119 120 121 122 123 124 125 126 127 128
        </DataArray>
        <DataArray type="UInt8" Name="types" format="ascii">
 1 1 1 1 1 1 1 1 1 1 1 1 1 1 1 1 1 1 1 1 1 1 1 1 1 1 1 1 1 1 1 1 1 1 1 1 1 1 1 1 1 1 1 1 1 1 1 1 1 1 1 1 1 1 1 1 1 1 1 1 1 1 1 1 1 1 1 1 1 1 1 1 1 1 1 1 1 1 1 1 1 1 1 1 1 1 1 1 1 1 1 1 1 1 1 1 1 1 1 1 1 1 1 1 1 1 1 1 1 1 1 1 1 1 1 1 1 1 1 1 1 1 1 1 1 1 1 1
        </DataArray>
      </Cells>
      <PointData Scalars="smoothLength">
        <DataArray type="Float32" Name="smoothLength" format="ascii">
 0.0325000000 0.0325000000 0.0325000000 0.0325000000 0.0325000000 0.0325000000 0.0325000000 0.0325000000 0.0325000000 0.0325000000 0.0325000000 0.0325000000 0.0325000000 0.0325000000 0.0325000000 0.0325000000 0.0325000000 0.0325000000 0.0325000000 0.0325000000 0.0325000000 0.0325000000 0.0325000000 0.0325000000 0.0325000000 0.0325000000 0.0325000000 0.0325000000 0.0325000000 0.0325000000 0.0325000000 0.0325000000 0.0325000000 0.0325000000 0.0325000000 0.0325000000 0.0325000000 0.0325000000 0.0325000000 0.0325000000 0.0325000000 0.0325000000 0.0325000000 0.0325000000 0.0325000000 0.0325000000 0.0325000000 0.0325000000 0.0325000000 0.0325000000 0.0325000000 0.0325000000 0.0325000000 0.0325000000 0.0325000000 0.0325000000 0.0325000000 0.0325000000 0.0325000000 0.0325000000 0.0325000000 0.0325000000 0.0325000000 0.0325000000 0.0325000000 0.0325000000 0.0325000000 0.0325000000 0.0325000000 0.0325000000 0.0325000000 0.0325000000 0.0325000000 0.0325000000 0.0325000000 0.0325000000 0.0325000000 0.0325000000 0.0325000000 0.0325000000 0.0325000000 0.0325000000 0.0325000000 0.0325000000 0.0325000000 0.0325000000 0.0325000000 0.0325000000 0.0325000000 0.0325000000 0.0325000000 0.0325000000 0.0325000000 0.0325000000 0.0325000000 0.0325000000 0.0325000000 0.0325000000 0.0325000000 0.0325000000 0.0325000000 0.0325000000 0.0325000000 0.0325000000 0.0325000000 0.0325000000 0.0325000000 0.0325000000 0.0325000000 0.0325000000 0.0325000000 0.0325000000 0.0325000000 0.0325000000 0.0325000000 0.0325000000 0.0325000000 0.0325000000 0.0325000000 0.0325000000 0.0325000000 0.0325000000 0.0325000000 0.0325000000 0.0325000000 0.0325000000 0.0325000000 0.0325000000
        </DataArray>
        <DataArray type="Float32" Name="pressure" format="ascii">
 0.0000000000 0.0000000000 0.0000000000 0.0000000000 0.0000000000 0.0000000000 0.0000000000 0.0000000000 0.0000000000 0.0000000000 0.0000000000 0.0000000000 0.0000000000 0.0000000000 0.0000000000 0.0000000000 0.0000000000 0.0000000000 0.0000000000 0.0000000000 0.0000000000 0.0000000000 0.0000000000 0.0000000000 0.0000000000 0.0000000000 0.0000000000 0.0000000000 0.0000000000 0.0000000000 0.0000000000 0.0000000000 0.0000000000 0.0000000000 0.0000000000 0.0000000000 0.0000000000 0.0000000000 0.0000000000 0.0000000000 0.0000000000 0.0000000000 0.0000000000 0.0000000000 0.0000000000 0.0000000000 0.0000000000 0.0000000000 0.0000000000 0.0000000000 0.0000000000 0.0000000000 0.0000000000 0.0000000000 0.0000000000 0.0000000000 0.0000000000 0.0000000000 0.0000000000 0.0000000000 0.0000000000 0.0000000000 0.0000000000 0.0000000000 0.0000000000 0.0000000000 0.0000000000 0.0000000000 0.0000000000 0.0000000000 0.0000000000 0.0000000000 0.0000000000 0.0000000000 0.0000000000 0.0000000000 0.0000000000 0.0000000000 0.0000000000 0.0000000000 0.0000000000 0.0000000000 0.0000000000 0.0000000000 0.0000000000 0.0000000000 0.0000000000 0.0000000000 0.0000000000 0.0000000000 0.0000000000 0.0000000000 0.0000000000 0.0000000000 0.0000000000 0.0000000000 0.0000000000 0.0000000000 0.0000000000 0.0000000000 0.0000000000 0.0000000000 0.0000000000 0.0000000000 0.0000000000 0.0000000000 0.0000000000 0.0000000000 0.0000000000 0.0000000000 0.0000000000 0.0000000000 0.0000000000 0.0000000000 0.0000000000 0.0000000000 0.0000000000 0.0000000000 0.0000000000 0.0000000000 0.0000000000 0.0000000000 0.0000000000 0.0000000000 0.0000000000 0.0000000000 0.0000000000 0.0000000000
        </DataArray>
        <DataArray type="Float32" Name="velocity" NumberOfComponents="3" format="ascii">
 0.0000000000 0.0000000000 0.0000000000 0.0000000000 0.0000000000 0.0000000000 0.0000000000 0.0000000000 0.0000000000 0.0000000000 0.0000000000 0.0000000000 0.0000000000 0.0000000000 0.0000000000 0.0000000000 0.0000000000 0.0000000000 0.0000000000 0.0000000000 0.0000000000 0.0000000000 0.0000000000 0.0000000000 0.0000000000 0.0000000000 0.0000000000 0.0000000000 0.0000000000 0.0000000000 0.0000000000 0.0000000000 0.0000000000 0.0000000000 0.0000000000 0.0000000000 0.0000000000 0.0000000000 0.0000000000 0.0000000000 0.0000000000 0.0000000000 0.0000000000 0.0000000000 0.0000000000 0.0000000000 0.0000000000 0.0000000000 0.0000000000 0.0000000000 0.0000000000 0.0000000000 0.0000000000 0.0000000000 0.0000000000 0.0000000000 0.0000000000 0.0000000000 0.0000000000 0.0000000000 0.0000000000 0.0000000000 0.0000000000 0.0000000000 0.0000000000 0.0000000000 0.0000000000 0.0000000000 0.0000000000 0.0000000000 0.0000000000 0.0000000000 0.0000000000 0.0000000000 0.0000000000 0.0000000000 0.0000000000 0.0000000000 0.0000000000 0.0000000000 0.0000000000 0.0000000000 0.0000000000 0.0000000000 0.0000000000 0.0000000000 0.0000000000 0.0000000000 0.0000000000 0.0000000000 0.0000000000 0.0000000000 0.0000000000 0.0000000000 0.0000000000 0.0000000000 0.0000000000 0.0000000000 0.0000000000 0.0000000000 0.0000000000 0.0000000000 0.0000000000 0.0000000000 0.0000000000 0.0000000000 0.0000000000 0.0000000000 0.0000000000 0.0000000000 0.0000000000 0.0000000000 0.0000000000 0.0000000000 0.0000000000 0.0000000000 0.0000000000 0.0000000000 0.0000000000 0.0000000000 0.0000000000 0.0000000000 0.0000000000 0.0000000000 0.0000000000 0.0000000000 0.0000000000 0.0000000000 0.0000000000 0.0000000000 0.0000000000 0.0000000000 0.0000000000 0.0000000000 0.0000000000 0.0000000000 0.0000000000 0.0000000000 0.0000000000 0.0000000000 0.0000000000 0.0000000000 0.0000000000 0.0000000000 0.0000000000 0.0000000000 0.0000000000 0.0000000000 0.0000000000 0.0000000000 0.0000000000 0.0000000000 0.0000000000 0.0000000000 0.0000000000 0.0000000000 0.0000000000 0.0000000000 0.0000000000 0.0000000000 0.0000000000 0.0000000000 0.0000000000 0.0000000000 0.0000000000 0.0000000000 0.0000000000 0.0000000000 0.0000000000 0.0000000000 0.0000000000 0.0000000000 0.0000000000 0.0000000000 0.0000000000 0.0000000000 0.0000000000 0.0000000000 0.0000000000 0.0000000000 0.0000000000 0.0000000000 0.0000000000 0.0000000000 0.0000000000 0.0000000000 0.0000000000 0.0000000000 0.0000000000 0.0000000000 0.0000000000 0.0000000000 0.0000000000 0.0000000000 0.0000000000 0.0000000000 0.0000000000 0.0000000000 0.0000000000 0.0000000000 0.0000000000 0.0000000000 0.0000000000 0.0000000000 0.0000000000 0.0000000000 0.0000000000 0.0000000000 0.0000000000 0.0000000000 0.0000000000 0.0000000000 0.0000000000 0.0000000000 0.0000000000 0.0000000000 0.0000000000 0.0000000000 0.0000000000 0.0000000000 0.0000000000 0.0000000000 0.0000000000 0.0000000000 0.0000000000 0.0000000000 0.0000000000 0.0000000000 0.0000000000 0.0000000000 0.0000000000 0.0000000000 0.0000000000 0.0000000000 0.0000000000 0.0000000000 0.0000000000 0.0000000000 0.0000000000 0.0000000000 0.0000000000 0.0000000000 0.0000000000 0.0000000000 0.0000000000 0.0000000000 0.0000000000 0.0000000000 0.0000000000 0.0000000000 0.0000000000 0.0000000000 0.0000000000 0.0000000000 0.0000000000 0.0000000000 0.0000000000 0.0000000000 0.0000000000 0.0000000000 0.0000000000 0.0000000000 0.0000000000 0.0000000000 0.0000000000 0.0000000000 0.0000000000 0.0000000000 0.0000000000 0.0000000000 0.0000000000 0.0000000000 0.0000000000 0.0000000000 0.0000000000 0.0000000000 0.0000000000 0.0000000000 0.0000000000 0.0000000000 0.0000000000 0.0000000000 0.0000000000 0.0000000000 0.0000000000 0.0000000000 0.0000000000 0.0000000000 0.0000000000 0.0000000000 0.0000000000 0.0000000000 0.0000000000 0.0000000000 0.0000000000 0.0000000000 0.0000000000 0.0000000000 0.0000000000 0.0000000000 0.0000000000 0.0000000000 0.0000000000 0.0000000000 0.0000000000 0.0000000000 0.0000000000 0.0000000000 0.0000000000 0.0000000000 0.0000000000 0.0000000000 0.0000000000 0.0000000000 0.0000000000 0.0000000000 0.0000000000 0.0000000000 0.0000000000 0.0000000000 0.0000000000 0.0000000000 0.0000000000 0.0000000000 0.0000000000 0.0000000000 0.0000000000 0.0000000000 0.0000000000 0.0000000000 0.0000000000 0.0000000000 0.0000000000 0.0000000000 0.0000000000 0.0000000000 0.0000000000 0.0000000000 0.0000000000 0.0000000000 0.0000000000 0.0000000000 0.0000000000 0.0000000000 0.0000000000 0.0000000000 0.0000000000 0.0000000000 0.0000000000 0.0000000000 0.0000000000 0.0000000000 0.0000000000 0.0000000000 0.0000000000 0.0000000000 0.0000000000 0.0000000000 0.0000000000 0.0000000000 0.0000000000 0.0000000000 0.0000000000 0.0000000000 0.0000000000 0.0000000000 0.0000000000 0.0000000000 0.0000000000 0.0000000000 0.0000000000 0.0000000000 0.0000000000 0.0000000000 0.0000000000 0.0000000000 0.0000000000 0.0000000000 0.0000000000 0.0000000000 0.0000000000 0.0000000000 0.0000000000 0.0000000000
        </DataArray>
      </PointData>
    </Piece>
  </UnstructuredGrid>
</VTKFile>
