<?xml version="1.0"?>
<VTKFile type="UnstructuredGrid" version="0.1" byte_order="LittleEndian">
  <UnstructuredGrid>
    <FieldData>
      <DataArray type="Float32" Name="TIME"  NumberOfTuples="1" format="ascii"> 2.2000000000 </DataArray>
      <DataArray type="Int32"   Name="STEP"  NumberOfTuples="1" format="ascii"> 550000 </DataArray>
    </FieldData>
    <Piece NumberOfPoints="11600" NumberOfCells="11600">
      <Points>
        <DataArray type="Float32" NumberOfComponents="3" format="ascii">
 -0.3754446550 -0.7358135878 0.0000015690 -0.1754832570 -0.7318843577 0.0000014948 0.0244781438 -0.7279551277 0.0000014189 0.2244395421 -0.7240258975 0.0000013341 0.4244009429 -0.7200966668 0.0000012477 0.6243623420 -0.7161674366 0.0000011578 0.8243237412 -0.7122382062 0.0000010658 1.0242851414 -0.7083089761 0.0000009737 1.2242465400 -0.7043797456 0.0000008813 1.4242079403 -0.7004505151 0.0000008014 1.6241693394 -0.6965212847 0.0000007299 1.8241307387 -0.6925920544 0.0000006691 2.0240921388 -0.6886628242 0.0000006200 2.2240535377 -0.6847335939 0.0000005914 2.4240149380 -0.6808043633 0.0000005768 2.6239763373 -0.6768751330 0.0000005700 2.8239377365 -0.6729459026 0.0000005687 3.0238991368 -0.6690166724 0.0000005695 3.2238605358 -0.6650874419 0.0000005705 3.4238219362 -0.6611582113 0.0000005647 3.6237833354 -0.6572289809 0.0000005534 3.8237447348 -0.6532997505 0.0000005353 4.0237061351 -0.6493705202 0.0000005105 4.2236675344 -0.6454412897 0.0000004688 4.4236289346 -0.6415120592 0.0000004263 4.6235903341 -0.6375828289 0.0000003803 4.8235517337 -0.6336535984 0.0000003327 5.0235131342 -0.6297243680 0.0000002861 5.2234745337 -0.6257951376 0.0000002333 5.4234359343 -0.6218659069 0.0000001990 5.6233973339 -0.6179366764 0.0000001701 5.8233587335 -0.6140074458 0.0000001464 6.0233201340 -0.6100782153 0.0000001267 6.2232815342 -0.6061489846 0.0000001019 6.4232429346 -0.6022197539 0.0000000830 6.6232043343 -0.5982905232 0.0000000602 6.8231657339 -0.5943612925 0.0000000310 7.0231271345 -0.5904320620 -0.0000000061 7.2230885347 -0.5865028311 -0.0000000646 7.4230499353 -0.5825736002 -0.0000001309 7.6230113350 -0.5786443694 -0.0000002052 7.8229727346 -0.5747151386 -0.0000002862 8.0229341350 -0.5707859078 -0.0000003713 8.2228955353 -0.5668566770 -0.0000004632 8.4228569357 -0.5629274459 -0.0000005494 8.6228183353 -0.5589982151 -0.0000006317 8.8227797350 -0.5550689842 -0.0000007078 9.0227411356 -0.5511397534 -0.0000007766 9.2227025354 -0.5472105225 -0.0000008315 9.4226639359 -0.5432812913 -0.0000008759 9.6226253354 -0.5393520604 -0.0000009141 9.8225867350 -0.5354228295 -0.0000009477 10.0225481352 -0.5314935984 -0.0000009796 10.2225095350 -0.5275643675 -0.0000010129 10.4224709351 -0.5236351362 -0.0000010529 10.6224323346 -0.5197059052 -0.0000010999 10.8223937338 -0.5157766741 -0.0000011558 11.0223551343 -0.5118474431 -0.0000012213 11.2223165332 -0.5079182120 -0.0000013079 11.4222779335 -0.5039889808 -0.0000014030 11.6222393327 -0.5000597497 -0.0000015061 11.8222007318 -0.4961305187 -0.0000016159 12.0221621322 -0.4922012878 -0.0000017303 12.2221235310 -0.4882720565 -0.0000018550 12.4220849316 -0.4843428251 -0.0000019755 12.6220463304 -0.4804135943 -0.0000020998 12.8220077304 -0.4764843623 -0.0000022196 13.0219691307 -0.4725551314 -0.0000023388 13.2219305293 -0.4686259002 -0.0000024582 13.4218919316 -0.4646966688 -0.0000025756 13.6218533303 -0.4607674354 -0.0000026923 13.8564789580 -0.4480514938 0.0000000000 14.0564775321 -0.4488065474 0.0000000000 14.2564761061 -0.4495616007 0.0000000000 14.4564746828 -0.4503166535 0.0000000000 14.6564732570 -0.4510717073 0.0000000000 14.8564718322 -0.4518267602 0.0000000000 15.0564704074 -0.4525818138 0.0000000000 15.2564689817 -0.4533368670 0.0000000000 15.4564675579 -0.4540919204 0.0000000000 15.6564661322 -0.4548469738 -0.0000000000 15.8564647078 -0.4556020271 -0.0000000000 16.0564632830 -0.4563570800 -0.0000000000 16.3277467382 -0.3377896625 0.0000000076 16.5276881923 -0.3329507584 0.0000000076 16.7276296450 -0.3281118551 0.0000000075 16.9275711000 -0.3232729516 0.0000000074 17.1275125536 -0.3184340483 0.0000000074 17.3274540072 -0.3135951450 0.0000000073 17.5273954621 -0.3087562418 0.0000000072 17.7273369153 -0.3039173386 0.0000000072 17.9272783700 -0.2990784352 0.0000000071 18.1272198238 -0.2942395320 0.0000000070 18.3271612775 -0.2894006286 0.0000000068 18.5271027328 -0.2845617255 0.0000000067 18.7270441858 -0.2797228225 0.0000000066 18.9269856412 -0.2748839189 0.0000000064 19.1269270951 -0.2700450156 0.0000000062 19.3268685489 -0.2652061121 0.0000000061 19.5268100022 -0.2603672085 0.0000000059 -0.2788667686 -0.5606773226 0.0000014145 -0.0789053704 -0.5567480929 0.0000013411 0.1210560296 -0.5528188624 0.0000012645 0.3210174298 -0.5488896322 0.0000011825 0.5209788290 -0.5449604017 0.0000010971 0.7209402282 -0.5410311712 0.0000010090 0.9209016274 -0.5371019407 0.0000009194 1.1208630274 -0.5331727103 0.0000008304 1.3208244274 -0.5292434801 0.0000007472 1.5207858265 -0.5253142496 0.0000006718 1.7207472258 -0.5213850192 0.0000006057 1.9207086251 -0.5174557887 0.0000005506 2.1206700250 -0.5135265583 0.0000005093 2.3206314250 -0.5095973281 0.0000004858 2.5205928243 -0.5056680977 0.0000004730 2.7205542236 -0.5017388672 0.0000004673 2.9205156230 -0.4978096367 0.0000004660 3.1204770229 -0.4938804063 0.0000004660 3.3204384229 -0.4899511761 0.0000004637 3.5203998223 -0.4860219456 0.0000004570 3.7203612219 -0.4820927151 0.0000004451 3.9203226214 -0.4781634846 0.0000004268 4.1202840213 -0.4742342542 0.0000004008 4.3202454214 -0.4703050240 0.0000003665 4.5202068210 -0.4663757936 0.0000003288 4.7201682206 -0.4624465631 0.0000002892 4.9201296203 -0.4585173326 0.0000002494 5.1200910205 -0.4545881022 0.0000002110 5.3200524209 -0.4506588716 0.0000001793 5.5200138205 -0.4467296412 0.0000001550 5.7199752203 -0.4428004106 0.0000001363 5.9199366201 -0.4388711801 0.0000001218 6.1198980206 -0.4349419494 0.0000001090 6.3198594210 -0.4310127187 0.0000000962 6.5198208207 -0.4270834880 0.0000000814 6.7197822207 -0.4231542574 0.0000000614 6.9197436206 -0.4192250267 0.0000000335 7.1197050210 -0.4152957960 -0.0000000062 7.3196664215 -0.4113665650 -0.0000000619 7.5196278213 -0.4074373343 -0.0000001276 7.7195892212 -0.4035081035 -0.0000002013 7.9195506210 -0.3995788726 -0.0000002813 8.1195120214 -0.3956496418 -0.0000003660 8.3194734219 -0.3917204108 -0.0000004524 8.5194348216 -0.3877911800 -0.0000005363 8.7193962215 -0.3838619491 -0.0000006156 8.9193576212 -0.3799327183 -0.0000006884 9.1193190216 -0.3760034873 -0.0000007520 9.3192804220 -0.3720742562 -0.0000008028 9.5192418217 -0.3681450253 -0.0000008453 9.7192032214 -0.3642157944 -0.0000008820 9.9191646211 -0.3602865634 -0.0000009149 10.1191260212 -0.3563573324 -0.0000009471 10.3190874213 -0.3524281011 -0.0000009827 10.5190488209 -0.3484988701 -0.0000010238 10.7190102205 -0.3445696392 -0.0000010724 10.9189716199 -0.3406404081 -0.0000011301 11.1189330198 -0.3367111770 -0.0000011997 11.3188944197 -0.3327819459 -0.0000012845 11.5188558191 -0.3288527148 -0.0000013786 11.7188172186 -0.3249234839 -0.0000014799 11.9187786176 -0.3209942528 -0.0000015872 12.1187400177 -0.3170650215 -0.0000016999 12.3187014174 -0.3131357908 -0.0000018166 12.5186628170 -0.3092065593 -0.0000019342 12.7186242168 -0.3052773284 -0.0000020521 12.9185856159 -0.3013480974 -0.0000021692 13.1185470163 -0.2974188656 -0.0000022861 13.3185084162 -0.2934896354 -0.0000024028 13.5184698159 -0.2895604031 -0.0000025195 13.7571335637 -0.2744701238 0.0000000000 13.9571321397 -0.2752251754 0.0000000000 14.1571307148 -0.2759802286 0.0000000000 14.3571292898 -0.2767352823 0.0000000000 14.5571278649 -0.2774903354 0.0000000000 14.7571264400 -0.2782453889 0.0000000000 14.9571250148 -0.2790004423 0.0000000000 15.1571235897 -0.2797554954 0.0000000000 15.3571221652 -0.2805105492 0.0000000000 15.5571207401 -0.2812656020 -0.0000000000 15.7571193154 -0.2820206552 -0.0000000000 15.9571178879 -0.2827757107 -0.0000000000 16.2235853985 -0.1670547375 0.0000000074 16.4235268509 -0.1622158334 0.0000000073 16.6234683052 -0.1573769293 0.0000000071 16.8234097596 -0.1525380259 0.0000000071 17.0233512134 -0.1476991225 0.0000000071 17.2232926673 -0.1428602193 0.0000000070 17.4232341212 -0.1380213161 0.0000000070 17.6231755756 -0.1331824126 0.0000000069 17.8231170298 -0.1283435093 0.0000000068 18.0230584837 -0.1235046061 0.0000000067 18.2229999377 -0.1186657030 0.0000000066 18.4229413917 -0.1138268001 0.0000000065 18.6228828463 -0.1089878965 0.0000000064 18.8228243009 -0.1041489935 0.0000000062 19.0227657548 -0.0993100901 0.0000000061 19.2227072088 -0.0944711867 0.0000000059 19.4226486627 -0.0896322833 0.0000000058 19.6225901156 -0.0847933798 0.0000000056 -0.3822502816 -0.3894702867 0.0000013310 -0.1822888829 -0.3855410566 0.0000012604 0.0176725174 -0.3816118264 0.0000011885 0.2176339157 -0.3776825960 0.0000011125 0.4175953160 -0.3737533656 0.0000010323 0.6175567152 -0.3698241351 0.0000009488 0.8175181147 -0.3658949048 0.0000008631 1.0174795147 -0.3619656744 0.0000007767 1.2174409134 -0.3580364437 0.0000006928 1.4174023135 -0.3541072136 0.0000006153 1.6173637129 -0.3501779832 0.0000005450 1.8173251122 -0.3462487527 0.0000004843 2.0172865121 -0.3423195224 0.0000004346 2.2172479110 -0.3383902918 0.0000004005 2.4172093110 -0.3344610617 0.0000003805 2.6171707105 -0.3305318313 0.0000003692 2.8171321100 -0.3266026009 0.0000003641 3.0170935099 -0.3226733705 0.0000003622 3.2170549090 -0.3187441399 0.0000003612 3.4170163091 -0.3148149096 0.0000003578 3.6169777087 -0.3108856791 0.0000003508 3.8169391082 -0.3069564487 0.0000003391 4.0169005081 -0.3030272183 0.0000003222 4.2168619077 -0.2990979878 0.0000002984 4.4168233077 -0.2951687575 0.0000002695 4.6167847074 -0.2912395272 0.0000002384 4.8167461071 -0.2873102968 0.0000002069 5.0167075073 -0.2833810663 0.0000001770 5.2166689069 -0.2794518359 0.0000001516 5.4166303071 -0.2755226053 0.0000001331 5.6165917070 -0.2715933747 0.0000001201 5.8165531068 -0.2676641442 0.0000001118 6.0165145070 -0.2637349136 0.0000001063 6.2
[...]
      <PointData Scalars="radius">
        <DataArray type="Float32" Name="radius" format="ascii">
 0.1000000000 0.1000000000 0.1000000000 0.1000000000 0.1000000000 0.1000000000 0.1000000000 0.1000000000 0.1000000000 0.1000000000 0.1000000000 0.1000000000 0.1000000000 0.1000000000 0.1000000000 0.1000000000 0.1000000000 0.1000000000 0.1000000000 0.1000000000 0.1000000000 0.1000000000 0.1000000000 0.1000000000 0.1000000000 0.1000000000 0.1000000000 0.1000000000 0.1000000000 0.1000000000 0.1000000000 0.1000000000 0.1000000000 0.1000000000 0.1000000000 0.1000000000 0.1000000000 0.1000000000 0.1000000000 0.1000000000 0.1000000000 0.1000000000 0.1000000000 0.1000000000 0.1000000000 0.1000000000 0.1000000000 0.1000000000 0.1000000000 0.1000000000 0.1000000000 0.1000000000 0.1000000000 0.1000000000 0.1000000000 0.1000000000 0.1000000000 0.1000000000 0.1000000000 0.1000000000 0.1000000000 0.1000000000 0.1000000000 0.1000000000 0.1000000000 0.1000000000 0.1000000000 0.1000000000 0.1000000000 0.1000000000 0.1000000000 0.1000000000 0.1000000000 0.1000000000 0.1000000000 0.1000000000 0.1000000000 0.1000000000 0.1000000000 0.1000000000 0.1000000000 0.1000000000 0.1000000000 0.1000000000 0.1000000000 0.1000000000 0.1000000000 0.1000000000 0.1000000000 0.1000000000 0.1000000000 0.1000000000 0.1000000000 0.1000000000 0.1000000000 0.1000000000 0.1000000000 0.1000000000 0.1000000000 0.1000000000 0.1000000000 0.1000000000 0.1000000000 0.1000000000 0.1000000000 0.1000000000 0.1000000000 0.1000000000 0.1000000000 0.1000000000 0.1000000000 0.1000000000 0.1000000000 0.1000000000 0.1000000000 0.1000000000 0.1000000000 0.1000000000 0.1000000000 0.1000000000 0.1000000000 0.1000000000 0.1000000000 0.1000000000 0.1000000000 0.1000000000 0.1000000000 0.1000000000 0.1000000000 0.1000000000 0.1000000000 0.1000000000 0.1000000000 0.1000000000 0.1000000000 0.1000000000 0.1000000000 0.1000000000 0.1000000000 0.1000000000 0.1000000000 0.1000000000 0.1000000000 0.1000000000 0.1000000000 0.1000000000 0.1000000000 0.1000000000 0.1000000000 0.1000000000 0.1000000000 0.1000000000 0.1000000000 0.1000000000 0.1000000000 0.1000000000 0.1000000000 0.1000000000 0.1000000000 0.1000000000 0.1000000000 0.1000000000 0.1000000000 0.1000000000 0.1000000000 0.1000000000 0.1000000000 0.1000000000 0.1000000000 0.1000000000 0.1000000000 0.1000000000 0.1000000000 0.1000000000 0.1000000000 0.1000000000 0.1000000000 0.1000000000 0.1000000000 0.1000000000 0.1000000000 0.1000000000 0.1000000000 0.1000000000 0.1000000000 0.1000000000 0.1000000000 0.1000000000 0.1000000000 0.1000000000 0.1000000000 0.1000000000 0.1000000000 0.1000000000 0.1000000000 0.1000000000 0.1000000000 0.1000000000 0.1000000000 0.1000000000 0.1000000000 0.1000000000 0.1000000000 0.1000000000 0.1000000000 0.1000000000 0.1000000000 0.1000000000 0.1000000000 0.1000000000 0.1000000000 0.1000000000 0.1000000000 0.1000000000 0.1000000000 0.1000000000 0.1000000000 0.1000000000 0.1000000000 0.1000000000 0.1000000000 0.1000000000 0.1000000000 0.1000000000 0.1000000000 0.1000000000 0.1000000000 0.1000000000 0.1000000000 0.1000000000 0.1000000000 0.1000000000 0.1000000000 0.1000000000 0.1000000000 0.1000000000 0.1000000000 0.1000000000 0.1000000000 0.1000000000 0.1000000000 0.1000000000 0.1000000000 0.1000000000 0.1000000000 0.1000000000 0.1000000000 0.1000000000 0.1000000000 0.1000000000 0.1000000000 0.1000000000 0.1000000000 0.1000000000 0.1000000000 0.1000000000 0.1000000000 0.1000000000 0.1000000000 0.1000000000 0.1000000000 0.1000000000 0.1000000000 0.1000000000 0.1000000000 0.1000000000 0.1000000000 0.1000000000 0.1000000000 0.1000000000 0.1000000000 0.1000000000 0.1000000000 0.1000000000 0.1000000000 0.1000000000 0.1000000000 0.1000000000 0.1000000000 0.1000000000 0.1000000000 0.1000000000 0.1000000000 0.1000000000 0.1000000000 0.1000000000 0.1000000000 0.1000000000 0.1000000000 0.1000000000 0.1000000000 0.1000000000 0.1000000000 0.1000000000 0.1000000000 0.1000000000 0.1000000000 0.1000000000 0.1000000000 0.1000000000 0.1000000000 0.1000000000 0.1000000000 0.1000000000 0.1000000000 0.1000000000 0.1000000000 0.1000000000 0.1000000000 0.1000000000 0.1000000000 0.1000000000 0.1000000000 0.1000000000 0.1000000000 0.1000000000 0.1000000000 0.1000000000 0.1000000000 0.1000000000 0.1000000000 0.1000000000 0.1000000000 0.1000000000 0.1000000000 0.1000000000 0.1000000000 0.1000000000 0.1000000000 0.1000000000 0.1000000000 0.1000000000 0.1000000000 0.1000000000 0.1000000000 0.1000000000 0.1000000000 0.1000000000 0.1000000000 0.1000000000 0.1000000000 0.1000000000 0.1000000000 0.1000000000 0.1000000000 0.1000000000 0.1000000000 0.1000000000 0.1000000000 0.1000000000 0.1000000000 0.1000000000 0.1000000000 0.1000000000 0.1000000000 0.1000000000 0.1000000000 0.1000000000 0.1000000000 0.1000000000 0.1000000000 0.1000000000 0.1000000000 0.1000000000 0.1000000000 0.1000000000 0.1000000000 0.1000000000 0.1000000000 0.1000000000 0.1000000000 0.1000000000 0.1000000000 0.1000000000 0.1000000000 0.1000000000 0.1000000000 0.1000000000 0.1000000000 0.1000000000 0.1000000000 0.1000000000 0.1000000000 0.1000000000 0.1000000000 0.1000000000 0.1000000000 0.1000000000 0.1000000000 0.1000000000 0.1000000000 0.1000000000 0.1000000000 0.1000000000 0.1000000000 0.1000000000 0.1000000000 0.1000000000 0.1000000000 0.1000000000 0.1000000000 0.1000000000 0.1000000000 0.1000000000 0.1000000000 0.1000000000 0.1000000000 0.1000000000 0.1000000000 0.1000000000 0.1000000000 0.1000000000 0.1000000000 0.1000000000 0.1000000000 0.1000000000 0.1000000000 0.1000000000 0.1000000000 0.1000000000 0.1000000000 0.1000000000 0.1000000000 0.1000000000 0.1000000000 0.1000000000 0.1000000000 0.1000000000 0.1000000000 0.1000000000 0.1000000000 0.1000000000 0.1000000000 0.1000000000 0.1000000000 0.1000000000 0.1000000000 0.1000000000 0.1000000000 0.1000000000 0.1000000000 0.1000000000 0.1000000000 0.1000000000 0.1000000000 0.1000000000 0.1000000000 0.1000000000 0.1000000000 0.1000000000 0.1000000000 0.1000000000 0.1000000000 0.1000000000 0.1000000000 0.1000000000 0.1000000000 0.1000000000 0.1000000000 0.1000000000 0.1000000000 0.1000000000 0.1000000000 0.1000000000 0.1000000000 0.1000000000 0.1000000000 0.1000000000 0.1000000000 0.1000000000 0.1000000000 0.1000000000 0.1000000000 0.1000000000 0.1000000000 0.1000000000 0.1000000000 0.1000000000 0.1000000000 0.1000000000 0.1000000000 0.1000000000 0.1000000000 0.1000000000 0.1000000000 0.1000000000 0.1000000000 0.1000000000 0.1000000000 0.1000000000 0.1000000000 0.1000000000 0.1000000000 0.1000000000 0.1000000000 0.1000000000 0.1000000000 0.1000000000 0.1000000000 0.1000000000 0.1000000000 0.1000000000 0.1000000000 0.1000000000 0.1000000000 0.1000000000 0.1000000000 0.1000000000 0.1000000000 0.1000000000 0.1000000000 0.1000000000 0.1000000000 0.1000000000 0.1000000000 0.1000000000 0.1000000000 0.1000000000 0.1000000000 0.1000000000 0.1000000000 0.1000000000 0.1000000000 0.1000000000 0.1000000000 0.1000000000 0.1000000000 0.1000000000 0.1000000000 0.1000000000 0.1000000000 0.1000000000 0.1000000000 0.1000000000 0.1000000000 0.1000000000 0.1000000000 0.1000000000 0.1000000000 0.1000000000 0.1000000000 0.1000000000 0.1000000000 0.1000000000 0.1000000000 0.1000000000 0.1000000000 0.1000000000 0.1000000000 0.1000000000 0.1000000000 0.1000000000 0.1000000000 0.1000000000 0.1000000000 0.1000000000 0.1000000000 0.1000000000 0.1000000000 0.1000000000 0.1000000000 0.1000000000 0.1000000000 0.1000000000 0.1000000000 0.1000000000 0.1000000000 0.1000000000 0.1000000000 0.1000000000 0.1000000000 0.1000000000 0.1000000000 0.1000000000 0.1000000000 0.1000000000 0.1000000000 0.1000000000 0.1000000000 0.1000000000 0.1000000000 0.1000000000 0.1000000000 0.1000000000 0.1000000000 0.1000000000 0.1000000000 0.1000000000 0.1000000000 0.1000000000 0.1000000000 0.1000000000 0.1000000000 0.1000000000 0.1000000000 0.1000000000 0.1000000000 0.1000000000 0.1000000000 0.1000000000 0.1000000000 0.1000000000 0.1000000000 0.1000000000 0.1000000000 0.1000000000 0.1000000000 0.1000000000 0.1000000000 0.1000000000 0.1000000000 0.1000000000 0.1000000000 0.1000000000 0.1000000000 0.1000000000 0.1000000000 0.1000000000 0.1000000000 0.1000000000 0.1000000000 0.1000000000 0.1000000000 0.1000000000 0.1000000000 0.1000000000 0.1000000000 0.1000000000 0.1000000000 0.1000000000 0.1000000000 0.1000000000 0.1000000000 0.1000000000 0.1000000000 0.1000000000 0.1000000000 0.1000000000 0.1000000000 0.1000000000 0.1000000000 0.1000000000 0.1000000000 0.1000000000 0.1000000000 0.1000000000 0.1000000000 0.1000000000 0.1000000000 0.1000000000 0.1000000000 0.1000000000 0.1000000000 0.1000000000 0.1000000000 0.1000000000 0.1000000000 0.1000000000 0.1000000000 0.1000000000 0.1000000000 0.1000000000 0.1000000000 0.1000000000 0.1000000000 0.1000000000 0.1000000000 0.1000000000 0.1000000000 0.1000000000 0.1000000000 0.1000000000 0.1000000000 0.1000000000 0.1000000000 0.1000000000 0.1000000000 0.1000000000 0.1000000000 0.1000000000 0.1000000000 0.1000000000 0.1000000000 0.1000000000 0.1000000000 0.1000000000 0.1000000000 0.1000000000 0.1000000000 0.1000000000 0.1000000000 0.1000000000 0.1000000000 0.1000000000 0.1000000000 0.1000000000 0.1000000000 0.1000000000 0.1000000000 0.1000000000 0.1000000000 0.1000000000 0.1000000000 0.1000000000 0.1000000000 0.1000000000 0.1000000000 0.1000000000 0.1000000000 0.1000000000 0.1000000000 0.1000000000 0.1000000000 0.1000000000 0.1000000000 0.1000000000 0.1000000000 0.1000000000 0.1000000000 0.1000000000 0.1000000000 0.1000000000 0.1000000000 0.1000000000 0.1000000000 0.1000000000 0.1000000000 0.1000000000 0.1000000000 0.1000000000 0.1000000000 0.1000000000 0.1000000000 0.1000000000 0.1000000000 0.1000000000 0.1000000000 0.1000000000 0.1000000000 0.1000000000 0.1000000000 0.1000000000 0.1000000000 0.1000000000 0.1000000000 0.1000000000 0.1000000000 0.1000000000 0.1000000000 0.1000000000 0.1000000000 0.1000000000 0.1000000000 0.1000000000 0.1000000000 0.1000000000 0.1000000000 0.1000000000 0.1000000000 0.1000000000 0.1000000000 0.1000000000 0.1000000000 0.1000000000 0.1000000000 0.1000000000 0.1000000000 0.1000000000 0.1000000000 0.1000000000 0.1000000000 0.1000000000 0.1000000000 0.1000000000 0.1000000000 0.1000000000 0.1000000000 0.1000000000 0.1000000000 0.1000000000 0.1000000000 0.1000000000 0.1000000000 0.1000000000 0.1000000000 0.1000000000 0.1000000000 0.1000000000 0.1000000000 0.1000000000 0.1000000000 0.1000000000 0.1000000000 0.1000000000 0.1000000000 0.1000000000 0.1000000000 0.1000000000 0.1000000000 0.1000000000 0.1000000000 0.1000000000 0.1000000000 0.1000000000 0.1000000000 0.1000000000 0.1000000000 0.1000000000 0.1000000000 0.1000000000 0.1000000000 0.1000000000 0.1000000000 0.1000000000 0.1000000000 0.1000000000 0.1000000000 0.1000000000 0.1000000000 0.1000000000 0.1000000000 0.1000000000 0.1000000000 0.1000000000 0.1000000000 0.1000000000 0.1000000000 0.1000000000 0.1000000000 0.1000000000 0.1000000000 0.1000000000 0.1000000000 0.1000000000 0.1000000000 0.1000000000 0.1000000000 0.1000000000 0.1000000000 0.1000000000 0.1000000000 0.1000000000 0.1000000000 0.1000000000 0.1000000000 0.1000000000 0.1000000000 0.1000000000 0.1000000000 0.1000000000 0.1000000000 0.1000000000 0.1000000000 0.1000000000 0.1000000000 0.1000000000 0.1000000000 0.1000000000 0.1000000000 0.1000000000 0.1000000000 0.1000000000 0.1000000000 0.1000000000 0.1000000000 0.1000000000 0.1000000000 0.1000000000 0.1000000000 0.1000000000 0.1000000000 0.1000000000 0.1000000000 0.1000000000 0.1000000000 0.1000000000 0.1000000000 0.1000000000 0.1000000000 0.1000000000 0.1000000000 0.1000000000 0.1000000000 0.1000000000 0.1000000000 0.1000000000 0.1000000000 0.1000000000 0.1000000000 0.1000000000 0.1000000000 0.1000000000 0.1000000000 0.1000000000 0.1000000000 0.1000000000 0.1000000000 0.1000000000 0.1000000000 0.1000000000 0.1000000000 0.1000000000 0.1000000000 0.1000000000 0.1000000000 0.1000000000 0.1000000000 0.1000000000 0.1000000000 0.1000000000 0.1000000000 0.1000000000 0.1000000000 0.1000000000 0.1000000000 0.1000000000 0.1000000000 0.1000000000 0.1000000000 0.1000000000 0.1000000000 0.1000000000 0.1000000000 0.1000000000 0.1000000000 0.1000000000 0.1000000000 0.1000000000 0.1000000000 0.1000000000 0.1000000000 0.1000000000 0.1000000000 0.1000000000 0.1000000000 0.1000000000 0.1000000000 0.1000000000 0.1000000000 0.1000000000 0.1000000000 0.1000000000 0.1000000000 0.1000000000 0.1000000000 0.1000000000 0.1000000000 0.1000000000 0.1000000000 0.1000000000 0.1000000000 0.1000000000 0.1000000000 0.1000000000 0.1000000000 0.1000000000 0.1000000000 0.1000000000 0.1000000000 0.1000000000 0.1000000000 0.1000000000 0.1000000000 0.1000000000 0.1000000000 0.1000000000 0.1000000000 0.1000000000 0.1000000000 0.1000000000 0.1000000000 0.1000000000 0.1000000000 0.1000000000 0.1000000000 0.1000000000 0.1000000000 0.1000000000 0.1000000000 0.1000000000 0.1000000000 0.1000000000 0.1000000000 0.1000000000 0.1000000000 0.1000000000 0.1000000000 0.1000000000 0.1000000000 0.1000000000 0.1000000000 0.1000000000 0.1000000000 0.1000000000 0.1000000000 0.1000000000 0.1000000000 0.1000000000 0.1000000000 0.1000000000 0.1000000000 0.1000000000 0.1000000000 0.1000000000 0.1000000000 0.1000000000 0.1000000000 0.1000000000 0.1000000000 0.1000000000 0.1000000000 0.1000000000 0.1000000000 0.1000000000 0.1000000000 0.1000000000 0.1000000000 0.1000000000 0.1000000000 0.1000000000 0.1000000000 0.1000000000 0.1000000000 0.1000000000 0.1000000000 0.1000000000 0.1000000000 0.1000000000 0.1000000000 0.1000000000 0.1000000000 0.1000000000 0.1000000000 0.1000000000 0.1000000000 0.1000000000 0.1000000000 0.1000000000 0.1000000000 0.1000000000 0.1000000000 0.1000000000 0.1000000000 0.1000000000 0.1000000000 0.1000000000 0.1000000000 0.1000000000 0.1000000000 0.1000000000 0.1000000000 0.1000000000 0.1000000000 0.1000000000 0.1000000000 0.1000000000 0.1000000000 0.1000000000 0.1000000000 0.1000000000 0.1000000000 0.1000000000 0.1000000000 0.1000000000 0.1000000000 0.1000000000 0.1000000000 0.1000000000 0.1000000000 0.1000000000 0.1000000000 0.1000000000 0.1000000000 0.1000000000 0.1000000000 0.1000000000 0.1000000000 0.1000000000 0.1000000000 0.1000000000 0.1000000000 0.1000000000 0.1000000000 0.1000000000 0.1000000000 0.1000000000 0.1000000000 0.1000000000 0.1000000000 0.1000000000 0.1000000000 0.1000000000 0.1000000000 0.1000000000 0.1000000000 0.1000000000 0.1000000000 0.1000000000 0.1000000000 0.1000000000 0.1000000000 0.1000000000 0.1000000000 0.1000000000 0.1000000000 0.1000000000 0.1000000000 0.1000000000 0.1000000000 0.1000000000 0.1000000000 0.1000000000 0.1000000000 0.1000000000 0.1000000000 0.1000000000 0.1000000000 0.1000000000 0.1000000000 0.1000000000 0.1000000000 0.1000000000 0.1000000000 0.1000000000 0.1000000000 0.1000000000 0.1000000000 0.1000000000 0.1000000000 0.1000000000 0.1000000000 0.1000000000 0.1000000000 0.1000000000 0.1000000000 0.1000000000 0.1000000000 0.1000000000 0.1000000000 0.1000000000 0.1000000000 0.1000000000 0.1000000000 0.1000000000 0.1000000000 0.1000000000 0.1000000000 0.1000000000 0.1000000000 0.1000000000 0.1000000000 0.1000000000 0.1000000000 0.1000000000 0.1000000000 0.1000000000 0.1000000000 0.1000000000 0.1000000000 0.1000000000 0.1000000000 0.1000000000 0.1000000000 0.1000000000 0.1000000000 0.1000000000 0.1000000000 0.1000000000 0.1000000000 0.1000000000 0.1000000000 0.1000000000 0.1000000000 0.1000000000 0.1000000000 0.1000000000 0.1000000000 0.1000000000 0.1000000000 0.1000000000 0.1000000000 0.1000000000 0.1000000000 0.1000000000 0.1000000000 0.1000000000 0.1000000000 0.1000000000 0.1000000000 0.1000000000 0.1000000000 0.1000000000 0.1000000000 0.1000000000 0.1000000000 0.1000000000 0.1000000000 0.1000000000 0.1000000000 0.1000000000 0.1000000000 0.1000000000 0.1000000000 0.1000000000 0.1000000000 0.1000000000 0.1000000000 0.1000000000 0.1000000000 0.1000000000 0.1000000000 0.1000000000 0.1000000000 0.1000000000 0.1000000000 0.1000000000 0.1000000000 0.1000000000 0.1000000000 0.1000000000 0.1000000000 0.1000000000 0.1000000000 0.1000000000 0.1000000000 0.1000000000 0.1000000000 0.1000000000 0.1000000000 0.1000000000 0.1000000000 0.1000000000 0.1000000000 0.1000000000 0.1000000000 0.1000000000 0.1000000000 0.1000000000 0.1000000000 0.1000000000 0.1000000000 0.1000000000 0.1000000000 0.1000000000 0.1000000000 0.1000000000 0.1000000000 0.1000000000 0.1000000000 0.1000000000 0.1000000000 0.1000000000 0.1000000000 0.1000000000 0.1000000000 0.1000000000 0.1000000000 0.1000000000 0.1000000000 0.1000000000 0.1000000000 0.1000000000 0.1000000000 0.1000000000 0.1000000000 0.1000000000 0.1000000000 0.1000000000 0.1000000000 0.1000000000 0.1000000000 0.1000000000 0.1000000000 0.1000000000 0.1000000000 0.1000000000 0.1000000000 0.1000000000 0.1000000000 0.1000000000 0.1000000000 0.1000000000 0.1000000000 0.1000000000 0.1000000000 0.1000000000 0.1000000000 0.1000000000 0.1000000000 0.1000000000 0.1000000000 0.1000000000 0.1000000000 0.1000000000 0.1000000000 0.1000000000 0.1000000000 0.1000000000 0.1000000000 0.1000000000 0.1000000000 0.1000000000 0.1000000000 0.1000000000 0.1000000000 0.1000000000 0.1000000000 0.1000000000 0.1000000000 0.1000000000 0.1000000000 0.1000000000 0.1000000000 0.1000000000 0.1000000000 0.1000000000 0.1000000000 0.1000000000 0.1000000000 0.1000000000 0.1000000000 0.1000000000 0.1000000000 0.1000000000 0.1000000000 0.1000000000 0.1000000000 0.1000000000 0.1000000000 0.1000000000 0.1000000000 0.1000000000 0.1000000000 0.1000000000 0.1000000000 0.1000000000 0.1000000000 0.1000000000 0.1000000000 0.1000000000 0.1000000000 0.1000000000 0.1000000000 0.1000000000 0.1000000000 0.1000000000 0.1000000000 0.1000000000 0.1000000000 0.1000000000 0.1000000000 0.1000000000 0.1000000000 0.1000000000 0.1000000000 0.1000000000 0.1000000000 0.1000000000 0.1000000000 0.1000000000 0.1000000000 0.1000000000 0.1000000000 0.1000000000 0.1000000000 0.1000000000 0.1000000000 0.1000000000 0.1000000000 0.1000000000 0.1000000000 0.1000000000 0.1000000000 0.1000000000 0.1000000000 0.1000000000 0.1000000000 0.1000000000 0.1000000000 0.1000000000 0.1000000000 0.1000000000 0.1000000000 0.1000000000 0.1000000000 0.1000000000 0.1000000000 0.1000000000 0.1000000000 0.1000000000 0.1000000000 0.1000000000 0.1000000000 0.1000000000 0.1000000000 0.1000000000 0.1000000000 0.1000000000 0.1000000000 0.1000000000 0.1000000000 0.1000000000 0.1000000000 0.1000000000 0.1000000000 0.1000000000 0.1000000000 0.1000000000 0.1000000000 0.1000000000 0.1000000000 0.1000000000 0.1000000000 0.1000000000 0.1000000000 0.1000000000 0.1000000000 0.1000000000 0.1000000000 0.1000000000 0.1000000000 0.1000000000 0.1000000000 0.1000000000 0.1000000000 0.1000000000 0.1000000000 0.1000000000 0.1000000000 0.1000000000 0.1000000000 0.1000000000 0.1000000000 0.1000000000 0.1000000000 0.1000000000 0.1000000000 0.1000000000 0.1000000000 0.1000000000 0.1000000000 0.1000000000 0.1000000000 0.1000000000 0.1000000000 0.1000000000 0.1000000000 0.1000000000 0.1000000000 0.1000000000 0.1000000000 0.1000000000 0.1000000000 0.1000000000 0.1000000000 0.1000000000 0.1000000000 0.1000000000 0.1000000000 0.1000000000 0.1000000000 0.1000000000 0.1000000000 0.1000000000 0.1000000000 0.1000000000 0.1000000000 0.1000000000 0.1000000000 0.1000000000 0.1000000000 0.1000000000 0.1000000000 0.1000000000 0.1000000000 0.1000000000 0.1000000000 0.1000000000 0.1000000000 0.1000000000 0.1000000000 0.1000000000 0.1000000000 0.1000000000 0.1000000000 0.1000000000 0.1000000000 0.1000000000 0.1000000000 0.1000000000 0.1000000000 0.1000000000 0.1000000000 0.1000000000 0.1000000000 0.1000000000 0.1000000000 0.1000000000 0.1000000000 0.1000000000 0.1000000000 0.1000000000 0.1000000000 0.1000000000 0.1000000000 0.1000000000 0.1000000000 0.1000000000 0.1000000000 0.1000000000 0.1000000000 0.1000000000 0.1000000000 0.1000000000 0.1000000000 0.1000000000 0.1000000000 0.1000000000 0.1000000000 0.1000000000 0.1000000000 0.1000000000 0.1000000000 0.1000000000 0.1000000000 0.1000000000 0.1000000000 0.1000000000 0.1000000000 0.1000000000 0.10000000