<?xml version="1.0"?>
<VTKFile type="UnstructuredGrid" version="0.1" byte_order="LittleEndian">
  <UnstructuredGrid>
    <FieldData>
      <DataArray type="Float32" Name="TIME"  NumberOfTuples="1" format="ascii"> 2.5500000000 </DataArray>
      <DataArray type="Int32"   Name="STEP"  NumberOfTuples="1" format="ascii"> 637500 </DataArray>
    </FieldData>
    <Piece NumberOfPoints="11600" NumberOfCells="11600">
      <Points>
        <DataArray type="Float32" NumberOfComponents="3" format="ascii">
 -0.4462346649 -0.8350490173 -0.0000012188 -0.2462829512 -0.8306545099 -0.0000012201 -0.0463312347 -0.8262600028 -0.0000012201 0.1536204795 -0.8218654956 -0.0000012153 0.3535721964 -0.8174709880 -0.0000012076 0.5535239116 -0.8130764807 -0.0000011965 0.7534756267 -0.8086819732 -0.0000011814 0.9534273426 -0.8042874662 -0.0000011621 1.1533790571 -0.7998929590 -0.0000011324 1.3533307730 -0.7954984521 -0.0000010988 1.5532824879 -0.7911039455 -0.0000010607 1.7532342033 -0.7867094387 -0.0000010183 1.9531859197 -0.7823149315 -0.0000009726 2.1531376354 -0.7779204238 -0.0000009188 2.3530893520 -0.7735259154 -0.0000008670 2.5530410680 -0.7691314069 -0.0000008148 2.7529927838 -0.7647368978 -0.0000007633 2.9529445007 -0.7603423888 -0.0000007134 3.1528962191 -0.7559478792 -0.0000006641 3.3528479361 -0.7515533694 -0.0000006204 3.5527996521 -0.7471588599 -0.0000005789 3.7527513683 -0.7427643501 -0.0000005394 3.9527030851 -0.7383698405 -0.0000005017 4.1526548032 -0.7339753302 -0.0000004661 4.3526065199 -0.7295808196 -0.0000004318 4.5525582363 -0.7251863091 -0.0000003987 4.7525099525 -0.7207917980 -0.0000003672 4.9524616696 -0.7163972867 -0.0000003376 5.1524133878 -0.7120027743 -0.0000003128 5.3523651041 -0.7076082617 -0.0000002937 5.5523168194 -0.7032137499 -0.0000002805 5.7522685348 -0.6988192382 -0.0000002749 5.9522202509 -0.6944247269 -0.0000002781 6.1521719664 -0.6900302153 -0.0000002972 6.3521236821 -0.6856357038 -0.0000003315 6.5520753967 -0.6812411924 -0.0000003753 6.7520271112 -0.6768466808 -0.0000004280 6.9519788260 -0.6724521693 -0.0000004878 7.1519305392 -0.6680576574 -0.0000005605 7.3518822534 -0.6636631455 -0.0000006356 7.5518339667 -0.6592686338 -0.0000007130 7.7517856797 -0.6548741225 -0.0000007913 7.9517373930 -0.6504796118 -0.0000008692 8.1516891041 -0.6460851017 -0.0000009500 8.3516408173 -0.6416905919 -0.0000010226 8.5515925300 -0.6372960829 -0.0000010929 8.7515442428 -0.6329015741 -0.0000011601 8.9514959564 -0.6285070656 -0.0000012238 9.1514476679 -0.6241125568 -0.0000012821 9.3513993813 -0.6197180476 -0.0000013298 9.5513510941 -0.6153235384 -0.0000013709 9.7513028069 -0.6109290290 -0.0000014042 9.9512545200 -0.6065345194 -0.0000014296 10.1512062310 -0.6021400098 -0.0000014436 10.3511579439 -0.5977455000 -0.0000014458 10.5511096565 -0.5933509907 -0.0000014425 10.7510613688 -0.5889564815 -0.0000014351 10.9510130821 -0.5845619730 -0.0000014252 11.1509647931 -0.5801674651 -0.0000014190 11.3509165071 -0.5757729572 -0.0000014117 11.5508682208 -0.5713784490 -0.0000014083 11.7508199345 -0.5669839403 -0.0000014092 11.9507716490 -0.5625894316 -0.0000014142 12.1507233610 -0.5581949224 -0.0000014299 12.3506750750 -0.5538004135 -0.0000014455 12.5506267859 -0.5494059055 -0.0000014673 12.7505784987 -0.5450113980 -0.0000014876 12.9505302113 -0.5406168937 -0.0000015082 13.1504819210 -0.5362223918 -0.0000015300 13.3504336362 -0.5318278923 -0.0000015501 13.5503853496 -0.5274333917 -0.0000015704 13.7923435194 -0.5122379433 0.0000000000 13.9923417451 -0.5130802413 0.0000000000 14.1923399707 -0.5139225391 0.0000000000 14.3923381990 -0.5147648363 0.0000000000 14.5923364247 -0.5156071345 0.0000000000 14.7923346516 -0.5164494319 0.0000000000 14.9923328784 -0.5172917300 0.0000000000 15.1923311043 -0.5181340276 0.0000000000 15.3923293320 -0.5189763254 0.0000000000 15.5923275580 -0.5198186233 0.0000000000 15.7923257852 -0.5206609211 0.0000000000 15.9923240119 -0.5215032184 0.0000000000 16.2743301235 -0.3861394712 -0.0000000086 16.4742535269 -0.3806047868 -0.0000000075 16.6741769289 -0.3750701033 -0.0000000061 16.8741003331 -0.3695354194 -0.0000000048 17.0740237360 -0.3640007358 -0.0000000035 17.2739471388 -0.3584660522 -0.0000000024 17.4738705425 -0.3529313688 -0.0000000014 17.6737939444 -0.3473966856 -0.0000000004 17.8737173478 -0.3418620023 0.0000000004 18.0736407507 -0.3363273193 0.0000000013 18.2735641535 -0.3307926364 0.0000000023 18.4734875574 -0.3252579539 0.0000000034 18.6734109592 -0.3197232716 0.0000000048 18.8733343634 -0.3141885889 0.0000000062 19.0732577665 -0.3086539067 0.0000000077 19.2731811697 -0.3031192244 0.0000000092 19.4731045725 -0.2975845421 0.0000000105 -0.3500645625 -0.6596885001 -0.0000011371 -0.1501128485 -0.6552939933 -0.0000011395 0.0498388674 -0.6508994858 -0.0000011402 0.2497905837 -0.6465049787 -0.0000011371 0.4497422989 -0.6421104712 -0.0000011307 0.6496940142 -0.6377159636 -0.0000011208 0.8496457293 -0.6333214561 -0.0000011067 1.0495974451 -0.6289269488 -0.0000010869 1.2495491610 -0.6245324420 -0.0000010596 1.4495008760 -0.6201379353 -0.0000010271 1.6494525911 -0.6157434286 -0.0000009901 1.8494043063 -0.6113489213 -0.0000009490 2.0493560223 -0.6069544138 -0.0000009039 2.2493077385 -0.6025599060 -0.0000008554 2.4492594539 -0.5981653977 -0.0000008060 2.6492111697 -0.5937708888 -0.0000007567 2.8491628858 -0.5893763796 -0.0000007083 3.0491146032 -0.5849818705 -0.0000006614 3.2490663208 -0.5805873609 -0.0000006174 3.4490180371 -0.5761928512 -0.0000005759 3.6489697534 -0.5717983414 -0.0000005364 3.8489214697 -0.5674038316 -0.0000004985 4.0488731868 -0.5630093219 -0.0000004620 4.2488249040 -0.5586148115 -0.0000004268 4.4487766203 -0.5542203009 -0.0000003925 4.6487283365 -0.5498257900 -0.0000003592 4.8486800528 -0.5454312788 -0.0000003276 5.0486317699 -0.5410367671 -0.0000002989 5.2485834870 -0.5366422543 -0.0000002758 5.4485352028 -0.5322477422 -0.0000002583 5.6484869185 -0.5278532304 -0.0000002478 5.8484386341 -0.5234587189 -0.0000002458 6.0483903502 -0.5190642073 -0.0000002552 6.2483420660 -0.5146696957 -0.0000002814 6.4482937808 -0.5102751843 -0.0000003194 6.6482454955 -0.5058806729 -0.0000003670 6.8481972098 -0.5014861611 -0.0000004229 7.0481489240 -0.4970916492 -0.0000004868 7.2481006380 -0.4926971372 -0.0000005585 7.4480523515 -0.4883026256 -0.0000006332 7.6480040649 -0.4839081140 -0.0000007091 7.8479557780 -0.4795136028 -0.0000007850 8.0479074910 -0.4751190922 -0.0000008604 8.2478592040 -0.4707245823 -0.0000009326 8.4478109169 -0.4663300731 -0.0000010013 8.6477626299 -0.4619355641 -0.0000010669 8.8477143427 -0.4575410554 -0.0000011292 9.0476660555 -0.4531465467 -0.0000011869 9.2476177683 -0.4487520376 -0.0000012362 9.4475694810 -0.4443575286 -0.0000012784 9.6475211936 -0.4399630193 -0.0000013135 9.8474729061 -0.4355685098 -0.0000013409 10.0474246186 -0.4311740000 -0.0000013593 10.2473763311 -0.4267794902 -0.0000013657 10.4473280436 -0.4223849808 -0.0000013646 10.6472797563 -0.4179904717 -0.0000013583 10.8472314689 -0.4135959628 -0.0000013489 11.0471831818 -0.4092014545 -0.0000013387 11.2471348949 -0.4048069469 -0.0000013298 11.4470866082 -0.4004124389 -0.0000013231 11.6470383218 -0.3960179307 -0.0000013200 11.8469900353 -0.3916234218 -0.0000013213 12.0469417491 -0.3872289126 -0.0000013279 12.2468934625 -0.3828344041 -0.0000013401 12.4468451756 -0.3784398952 -0.0000013555 12.6467968890 -0.3740453878 -0.0000013733 12.8467486020 -0.3696508821 -0.0000013918 13.0467003158 -0.3652563779 -0.0000014108 13.2466520297 -0.3608618786 -0.0000014301 13.4466037442 -0.3564673790 -0.0000014496 13.6930738552 -0.3386132528 0.0000000000 13.8930720828 -0.3394555488 0.0000000000 14.0930703094 -0.3402978464 0.0000000000 14.2930685361 -0.3411401446 0.0000000000 14.4930667628 -0.3419824422 0.0000000000 14.6930649894 -0.3428247401 0.0000000000 14.8930632159 -0.3436670380 0.0000000000 15.0930614424 -0.3445093355 0.0000000000 15.2930596694 -0.3453516338 0.0000000000 15.4930578960 -0.3461939311 0.0000000000 15.6930561229 -0.3470362287 0.0000000000 15.8930543469 -0.3478785286 0.0000000000 16.1695752457 -0.2157680684 -0.0000000080 16.3694986475 -0.2102333840 -0.0000000071 16.5694220511 -0.2046986997 -0.0000000059 16.7693454547 -0.1991640160 -0.0000000046 16.9692688578 -0.1936293322 -0.0000000034 17.1691922610 -0.1880946487 -0.0000000024 17.3691156639 -0.1825599653 -0.0000000015 17.5690390672 -0.1770252816 -0.0000000009 17.7689624704 -0.1714905983 -0.0000000002 17.9688858733 -0.1659559154 0.0000000004 18.1688092763 -0.1604212326 0.0000000010 18.3687326794 -0.1548865501 0.0000000018 18.5686560829 -0.1493518672 0.0000000027 18.7685794864 -0.1438171850 0.0000000038 18.9685028895 -0.1382825027 0.0000000051 19.1684262928 -0.1327478205 0.0000000063 19.3683496961 -0.1272131383 0.0000000075 19.5682730985 -0.1216784561 0.0000000086 -0.4538461752 -0.4887224893 -0.0000010519 -0.2538944607 -0.4843279822 -0.0000010567 -0.0539427444 -0.4799334750 -0.0000010608 0.1460089699 -0.4755389678 -0.0000010626 0.3459606864 -0.4711444605 -0.0000010611 0.5459124016 -0.4667499529 -0.0000010564 0.7458641171 -0.4623554454 -0.0000010478 0.9458158331 -0.4579609381 -0.0000010349 1.1457675479 -0.4535664307 -0.0000010154 1.3457192638 -0.4491719242 -0.0000009892 1.5456709790 -0.4447774174 -0.0000009581 1.7456226939 -0.4403829104 -0.0000009225 1.9455744095 -0.4359884031 -0.0000008833 2.1455261243 -0.4315938950 -0.0000008402 2.3454778403 -0.4271993874 -0.0000007947 2.5454295558 -0.4228048790 -0.0000007482 2.7453812716 -0.4184103701 -0.0000007020 2.9453329882 -0.4140158611 -0.0000006569 3.1452847054 -0.4096213514 -0.0000006136 3.3452364222 -0.4052268418 -0.0000005727 3.5451881384 -0.4008323321 -0.0000005334 3.7451398547 -0.3964378223 -0.0000004956 3.9450915712 -0.3920433126 -0.0000004588 4.1450432881 -0.3876488020 -0.0000004229 4.3449950046 -0.3832542916 -0.0000003874 4.5449467208 -0.3788597810 -0.0000003526 4.7448984369 -0.3744652700 -0.0000003190 4.9448501533 -0.3700707585 -0.0000002873 5.1448018698 -0.3656762462 -0.0000002598 5.3447535863 -0.3612817338 -0.0000002383 5.54470
[...]
      <PointData Scalars="radius">
        <DataArray type="Float32" Name="radius" format="ascii">
 0.1000000000 0.1000000000 0.1000000000 0.1000000000 0.1000000000 0.1000000000 0.1000000000 0.1000000000 0.1000000000 0.1000000000 0.1000000000 0.1000000000 0.1000000000 0.1000000000 0.1000000000 0.1000000000 0.1000000000 0.1000000000 0.1000000000 0.1000000000 0.1000000000 0.1000000000 0.1000000000 0.1000000000 0.1000000000 0.1000000000 0.1000000000 0.1000000000 0.1000000000 0.1000000000 0.1000000000 0.1000000000 0.1000000000 0.1000000000 0.1000000000 0.1000000000 0.1000000000 0.1000000000 0.1000000000 0.1000000000 0.1000000000 0.1000000000 0.1000000000 0.1000000000 0.1000000000 0.1000000000 0.1000000000 0.1000000000 0.1000000000 0.1000000000 0.1000000000 0.1000000000 0.1000000000 0.1000000000 0.1000000000 0.1000000000 0.1000000000 0.1000000000 0.1000000000 0.1000000000 0.1000000000 0.1000000000 0.1000000000 0.1000000000 0.1000000000 0.1000000000 0.1000000000 0.1000000000 0.1000000000 0.1000000000 0.1000000000 0.1000000000 0.1000000000 0.1000000000 0.1000000000 0.1000000000 0.1000000000 0.1000000000 0.1000000000 0.1000000000 0.1000000000 0.1000000000 0.1000000000 0.1000000000 0.1000000000 0.1000000000 0.1000000000 0.1000000000 0.1000000000 0.1000000000 0.1000000000 0.1000000000 0.1000000000 0.1000000000 0.1000000000 0.1000000000 0.1000000000 0.1000000000 0.1000000000 0.1000000000 0.1000000000 0.1000000000 0.1000000000 0.1000000000 0.1000000000 0.1000000000 0.1000000000 0.1000000000 0.1000000000 0.1000000000 0.1000000000 0.1000000000 0.1000000000 0.1000000000 0.1000000000 0.1000000000 0.1000000000 0.1000000000 0.1000000000 0.1000000000 0.1000000000 0.1000000000 0.1000000000 0.1000000000 0.1000000000 0.1000000000 0.1000000000 0.1000000000 0.1000000000 0.1000000000 0.1000000000 0.1000000000 0.1000000000 0.1000000000 0.1000000000 0.1000000000 0.1000000000 0.1000000000 0.1000000000 0.1000000000 0.1000000000 0.1000000000 0.1000000000 0.1000000000 0.1000000000 0.1000000000 0.1000000000 0.1000000000 0.1000000000 0.1000000000 0.1000000000 0.1000000000 0.1000000000 0.1000000000 0.1000000000 0.1000000000 0.1000000000 0.1000000000 0.1000000000 0.1000000000 0.1000000000 0.1000000000 0.1000000000 0.1000000000 0.1000000000 0.1000000000 0.1000000000 0.1000000000 0.1000000000 0.1000000000 0.1000000000 0.1000000000 0.1000000000 0.1000000000 0.1000000000 0.1000000000 0.1000000000 0.1000000000 0.1000000000 0.1000000000 0.1000000000 0.1000000000 0.1000000000 0.1000000000 0.1000000000 0.1000000000 0.1000000000 0.1000000000 0.1000000000 0.1000000000 0.1000000000 0.1000000000 0.1000000000 0.1000000000 0.1000000000 0.1000000000 0.1000000000 0.1000000000 0.1000000000 0.1000000000 0.1000000000 0.1000000000 0.1000000000 0.1000000000 0.1000000000 0.1000000000 0.1000000000 0.1000000000 0.1000000000 0.1000000000 0.1000000000 0.1000000000 0.1000000000 0.1000000000 0.1000000000 0.1000000000 0.1000000000 0.1000000000 0.1000000000 0.1000000000 0.1000000000 0.1000000000 0.1000000000 0.1000000000 0.1000000000 0.1000000000 0.1000000000 0.1000000000 0.1000000000 0.1000000000 0.1000000000 0.1000000000 0.1000000000 0.1000000000 0.1000000000 0.1000000000 0.1000000000 0.1000000000 0.1000000000 0.1000000000 0.1000000000 0.1000000000 0.1000000000 0.1000000000 0.1000000000 0.1000000000 0.1000000000 0.1000000000 0.1000000000 0.1000000000 0.1000000000 0.1000000000 0.1000000000 0.1000000000 0.1000000000 0.1000000000 0.1000000000 0.1000000000 0.1000000000 0.1000000000 0.1000000000 0.1000000000 0.1000000000 0.1000000000 0.1000000000 0.1000000000 0.1000000000 0.1000000000 0.1000000000 0.1000000000 0.1000000000 0.1000000000 0.1000000000 0.1000000000 0.1000000000 0.1000000000 0.1000000000 0.1000000000 0.1000000000 0.1000000000 0.1000000000 0.1000000000 0.1000000000 0.1000000000 0.1000000000 0.1000000000 0.1000000000 0.1000000000 0.1000000000 0.1000000000 0.1000000000 0.1000000000 0.1000000000 0.1000000000 0.1000000000 0.1000000000 0.1000000000 0.1000000000 0.1000000000 0.1000000000 0.1000000000 0.1000000000 0.1000000000 0.1000000000 0.1000000000 0.1000000000 0.1000000000 0.1000000000 0.1000000000 0.1000000000 0.1000000000 0.1000000000 0.1000000000 0.1000000000 0.1000000000 0.1000000000 0.1000000000 0.1000000000 0.1000000000 0.1000000000 0.1000000000 0.1000000000 0.1000000000 0.1000000000 0.1000000000 0.1000000000 0.1000000000 0.1000000000 0.1000000000 0.1000000000 0.1000000000 0.1000000000 0.1000000000 0.1000000000 0.1000000000 0.1000000000 0.1000000000 0.1000000000 0.1000000000 0.1000000000 0.1000000000 0.1000000000 0.1000000000 0.1000000000 0.1000000000 0.1000000000 0.1000000000 0.1000000000 0.1000000000 0.1000000000 0.1000000000 0.1000000000 0.1000000000 0.1000000000 0.1000000000 0.1000000000 0.1000000000 0.1000000000 0.1000000000 0.1000000000 0.1000000000 0.1000000000 0.1000000000 0.1000000000 0.1000000000 0.1000000000 0.1000000000 0.1000000000 0.1000000000 0.1000000000 0.1000000000 0.1000000000 0.1000000000 0.1000000000 0.1000000000 0.1000000000 0.1000000000 0.1000000000 0.1000000000 0.1000000000 0.1000000000 0.1000000000 0.1000000000 0.1000000000 0.1000000000 0.1000000000 0.1000000000 0.1000000000 0.1000000000 0.1000000000 0.1000000000 0.1000000000 0.1000000000 0.1000000000 0.1000000000 0.1000000000 0.1000000000 0.1000000000 0.1000000000 0.1000000000 0.1000000000 0.1000000000 0.1000000000 0.1000000000 0.1000000000 0.1000000000 0.1000000000 0.1000000000 0.1000000000 0.1000000000 0.1000000000 0.1000000000 0.1000000000 0.1000000000 0.1000000000 0.1000000000 0.1000000000 0.1000000000 0.1000000000 0.1000000000 0.1000000000 0.1000000000 0.1000000000 0.1000000000 0.1000000000 0.1000000000 0.1000000000 0.1000000000 0.1000000000 0.1000000000 0.1000000000 0.1000000000 0.1000000000 0.1000000000 0.1000000000 0.1000000000 0.1000000000 0.1000000000 0.1000000000 0.1000000000 0.1000000000 0.1000000000 0.1000000000 0.1000000000 0.1000000000 0.1000000000 0.1000000000 0.1000000000 0.1000000000 0.1000000000 0.1000000000 0.1000000000 0.1000000000 0.1000000000 0.1000000000 0.1000000000 0.1000000000 0.1000000000 0.1000000000 0.1000000000 0.1000000000 0.1000000000 0.1000000000 0.1000000000 0.1000000000 0.1000000000 0.1000000000 0.1000000000 0.1000000000 0.1000000000 0.1000000000 0.1000000000 0.1000000000 0.1000000000 0.1000000000 0.1000000000 0.1000000000 0.1000000000 0.1000000000 0.1000000000 0.1000000000 0.1000000000 0.1000000000 0.1000000000 0.1000000000 0.1000000000 0.1000000000 0.1000000000 0.1000000000 0.1000000000 0.1000000000 0.1000000000 0.1000000000 0.1000000000 0.1000000000 0.1000000000 0.1000000000 0.1000000000 0.1000000000 0.1000000000 0.1000000000 0.1000000000 0.1000000000 0.1000000000 0.1000000000 0.1000000000 0.1000000000 0.1000000000 0.1000000000 0.1000000000 0.1000000000 0.1000000000 0.1000000000 0.1000000000 0.1000000000 0.1000000000 0.1000000000 0.1000000000 0.1000000000 0.1000000000 0.1000000000 0.1000000000 0.1000000000 0.1000000000 0.1000000000 0.1000000000 0.1000000000 0.1000000000 0.1000000000 0.1000000000 0.1000000000 0.1000000000 0.1000000000 0.1000000000 0.1000000000 0.1000000000 0.1000000000 0.1000000000 0.1000000000 0.1000000000 0.1000000000 0.1000000000 0.1000000000 0.1000000000 0.1000000000 0.1000000000 0.1000000000 0.1000000000 0.1000000000 0.1000000000 0.1000000000 0.1000000000 0.1000000000 0.1000000000 0.1000000000 0.1000000000 0.1000000000 0.1000000000 0.1000000000 0.1000000000 0.1000000000 0.1000000000 0.1000000000 0.1000000000 0.1000000000 0.1000000000 0.1000000000 0.1000000000 0.1000000000 0.1000000000 0.1000000000 0.1000000000 0.1000000000 0.1000000000 0.1000000000 0.1000000000 0.1000000000 0.1000000000 0.1000000000 0.1000000000 0.1000000000 0.1000000000 0.1000000000 0.1000000000 0.1000000000 0.1000000000 0.1000000000 0.1000000000 0.1000000000 0.1000000000 0.1000000000 0.1000000000 0.1000000000 0.1000000000 0.1000000000 0.1000000000 0.1000000000 0.1000000000 0.1000000000 0.1000000000 0.1000000000 0.1000000000 0.1000000000 0.1000000000 0.1000000000 0.1000000000 0.1000000000 0.1000000000 0.1000000000 0.1000000000 0.1000000000 0.1000000000 0.1000000000 0.1000000000 0.1000000000 0.1000000000 0.1000000000 0.1000000000 0.1000000000 0.1000000000 0.1000000000 0.1000000000 0.1000000000 0.1000000000 0.1000000000 0.1000000000 0.1000000000 0.1000000000 0.1000000000 0.1000000000 0.1000000000 0.1000000000 0.1000000000 0.1000000000 0.1000000000 0.1000000000 0.1000000000 0.1000000000 0.1000000000 0.1000000000 0.1000000000 0.1000000000 0.1000000000 0.1000000000 0.1000000000 0.1000000000 0.1000000000 0.1000000000 0.1000000000 0.1000000000 0.1000000000 0.1000000000 0.1000000000 0.1000000000 0.1000000000 0.1000000000 0.1000000000 0.1000000000 0.1000000000 0.1000000000 0.1000000000 0.1000000000 0.1000000000 0.1000000000 0.1000000000 0.1000000000 0.1000000000 0.1000000000 0.1000000000 0.1000000000 0.1000000000 0.1000000000 0.1000000000 0.1000000000 0.1000000000 0.1000000000 0.1000000000 0.1000000000 0.1000000000 0.1000000000 0.1000000000 0.1000000000 0.1000000000 0.1000000000 0.1000000000 0.1000000000 0.1000000000 0.1000000000 0.1000000000 0.1000000000 0.1000000000 0.1000000000 0.1000000000 0.1000000000 0.1000000000 0.1000000000 0.1000000000 0.1000000000 0.1000000000 0.1000000000 0.1000000000 0.1000000000 0.1000000000 0.1000000000 0.1000000000 0.1000000000 0.1000000000 0.1000000000 0.1000000000 0.1000000000 0.1000000000 0.1000000000 0.1000000000 0.1000000000 0.1000000000 0.1000000000 0.1000000000 0.1000000000 0.1000000000 0.1000000000 0.1000000000 0.1000000000 0.1000000000 0.1000000000 0.1000000000 0.1000000000 0.1000000000 0.1000000000 0.1000000000 0.1000000000 0.1000000000 0.1000000000 0.1000000000 0.1000000000 0.1000000000 0.1000000000 0.1000000000 0.1000000000 0.1000000000 0.1000000000 0.1000000000 0.1000000000 0.1000000000 0.1000000000 0.1000000000 0.1000000000 0.1000000000 0.1000000000 0.1000000000 0.1000000000 0.1000000000 0.1000000000 0.1000000000 0.1000000000 0.1000000000 0.1000000000 0.1000000000 0.1000000000 0.1000000000 0.1000000000 0.1000000000 0.1000000000 0.1000000000 0.1000000000 0.1000000000 0.1000000000 0.1000000000 0.1000000000 0.1000000000 0.1000000000 0.1000000000 0.1000000000 0.1000000000 0.1000000000 0.1000000000 0.1000000000 0.1000000000 0.1000000000 0.1000000000 0.1000000000 0.1000000000 0.1000000000 0.1000000000 0.1000000000 0.1000000000 0.1000000000 0.1000000000 0.1000000000 0.1000000000 0.1000000000 0.1000000000 0.1000000000 0.1000000000 0.1000000000 0.1000000000 0.1000000000 0.1000000000 0.1000000000 0.1000000000 0.1000000000 0.1000000000 0.1000000000 0.1000000000 0.1000000000 0.1000000000 0.1000000000 0.1000000000 0.1000000000 0.1000000000 0.1000000000 0.1000000000 0.1000000000 0.1000000000 0.1000000000 0.1000000000 0.1000000000 0.1000000000 0.1000000000 0.1000000000 0.1000000000 0.1000000000 0.1000000000 0.1000000000 0.1000000000 0.1000000000 0.1000000000 0.1000000000 0.1000000000 0.1000000000 0.1000000000 0.1000000000 0.1000000000 0.1000000000 0.1000000000 0.1000000000 0.1000000000 0.1000000000 0.1000000000 0.1000000000 0.1000000000 0.1000000000 0.1000000000 0.1000000000 0.1000000000 0.1000000000 0.1000000000 0.1000000000 0.1000000000 0.1000000000 0.1000000000 0.1000000000 0.1000000000 0.1000000000 0.1000000000 0.1000000000 0.1000000000 0.1000000000 0.1000000000 0.1000000000 0.1000000000 0.1000000000 0.1000000000 0.1000000000 0.1000000000 0.1000000000 0.1000000000 0.1000000000 0.1000000000 0.1000000000 0.1000000000 0.1000000000 0.1000000000 0.1000000000 0.1000000000 0.1000000000 0.1000000000 0.1000000000 0.1000000000 0.1000000000 0.1000000000 0.1000000000 0.1000000000 0.1000000000 0.1000000000 0.1000000000 0.1000000000 0.1000000000 0.1000000000 0.1000000000 0.1000000000 0.1000000000 0.1000000000 0.1000000000 0.1000000000 0.1000000000 0.1000000000 0.1000000000 0.1000000000 0.1000000000 0.1000000000 0.1000000000 0.1000000000 0.1000000000 0.1000000000 0.1000000000 0.1000000000 0.1000000000 0.1000000000 0.1000000000 0.1000000000 0.1000000000 0.1000000000 0.1000000000 0.1000000000 0.1000000000 0.1000000000 0.1000000000 0.1000000000 0.1000000000 0.1000000000 0.1000000000 0.1000000000 0.1000000000 0.1000000000 0.1000000000 0.1000000000 0.1000000000 0.1000000000 0.1000000000 0.1000000000 0.1000000000 0.1000000000 0.1000000000 0.1000000000 0.1000000000 0.1000000000 0.1000000000 0.1000000000 0.1000000000 0.1000000000 0.1000000000 0.1000000000 0.1000000000 0.1000000000 0.1000000000 0.1000000000 0.1000000000 0.1000000000 0.1000000000 0.1000000000 0.1000000000 0.1000000000 0.1000000000 0.1000000000 0.1000000000 0.1000000000 0.1000000000 0.1000000000 0.1000000000 0.1000000000 0.1000000000 0.1000000000 0.1000000000 0.1000000000 0.1000000000 0.1000000000 0.1000000000 0.1000000000 0.1000000000 0.1000000000 0.1000000000 0.1000000000 0.1000000000 0.1000000000 0.1000000000 0.1000000000 0.1000000000 0.1000000000 0.1000000000 0.1000000000 0.1000000000 0.1000000000 0.1000000000 0.1000000000 0.1000000000 0.1000000000 0.1000000000 0.1000000000 0.1000000000 0.1000000000 0.1000000000 0.1000000000 0.1000000000 0.1000000000 0.1000000000 0.1000000000 0.1000000000 0.1000000000 0.1000000000 0.1000000000 0.1000000000 0.1000000000 0.1000000000 0.1000000000 0.1000000000 0.1000000000 0.1000000000 0.1000000000 0.1000000000 0.1000000000 0.1000000000 0.1000000000 0.1000000000 0.1000000000 0.1000000000 0.1000000000 0.1000000000 0.1000000000 0.1000000000 0.1000000000 0.1000000000 0.1000000000 0.1000000000 0.1000000000 0.1000000000 0.1000000000 0.1000000000 0.1000000000 0.1000000000 0.1000000000 0.1000000000 0.1000000000 0.1000000000 0.1000000000 0.1000000000 0.1000000000 0.1000000000 0.1000000000 0.1000000000 0.1000000000 0.1000000000 0.1000000000 0.1000000000 0.1000000000 0.1000000000 0.1000000000 0.1000000000 0.1000000000 0.1000000000 0.1000000000 0.1000000000 0.1000000000 0.1000000000 0.1000000000 0.1000000000 0.1000000000 0.1000000000 0.1000000000 0.1000000000 0.1000000000 0.1000000000 0.1000000000 0.1000000000 0.1000000000 0.1000000000 0.1000000000 0.1000000000 0.1000000000 0.1000000000 0.1000000000 0.1000000000 0.1000000000 0.1000000000 0.1000000000 0.1000000000 0.1000000000 0.1000000000 0.1000000000 0.1000000000 0.1000000000 0.1000000000 0.1000000000 0.1000000000 0.1000000000 0.1000000000 0.1000000000 0.1000000000 0.1000000000 0.1000000000 0.1000000000 0.1000000000 0.1000000000 0.1000000000 0.1000000000 0.1000000000 0.1000000000 0.1000000000 0.1000000000 0.1000000000 0.1000000000 0.1000000000 0.1000000000 0.1000000000 0.1000000000 0.1000000000 0.1000000000 0.1000000000 0.1000000000 0.1000000000 0.1000000000 0.1000000000 0.1000000000 0.1000000000 0.1000000000 0.1000000000 0.1000000000 0.1000000000 0.1000000000 0.1000000000 0.1000000000 0.1000000000 0.1000000000 0.1000000000 0.1000000000 0.1000000000 0.1000000000 0.1000000000 0.1000000000 0.1000000000 0.1000000000 0.1000000000 0.1000000000 0.1000000000 0.1000000000 0.1000000000 0.1000000000 0.1000000000 0.1000000000 0.1000000000 0.1000000000 0.1000000000 0.1000000000 0.1000000000 0.1000000000 0.1000000000 0.1000000000 0.1000000000 0.1000000000 0.1000000000 0.1000000000 0.1000000000 0.1000000000 0.1000000000 0.1000000000 0.1000000000 0.1000000000 0.1000000000 0.1000000000 0.1000000000 0.1000000000 0.1000000000 0.1000000000 0.1000000000 0.1000000000 0.1000000000 0.1000000000 0.1000000000 0.1000000000 0.1000000000 0.1000000000 0.1000000000 0.1000000000 0.1000000000 0.1000000000 0.1000000000 0.1000000000 0.1000000000 0.1000000000 0.1000000000 0.1000000000 0.1000000000 0.1000000000 0.1000000000 0.1000000000 0.1000000000 0.1000000000 0.1000000000 0.1000000000 0.1000000000 0.1000000000 0.1000000000 0.1000000000 0.1000000000 0.1000000000 0.1000000000 0.1000000000 0.1000000000 0.1000000000 0.1000000000 0.1000000000 0.1000000000 0.1000000000 0.1000000000 0.1000000000 0.1000000000 0.1000000000 0.1000000000 0.1000000000 0.1000000000 0.1000000000 0.1000000000 0.1000000000 0.1000000000 0.1000000000 0.1000000000 0.1000000000 0.1000000000 0.1000000000 0.1000000000 0.1000000000 0.1000000000 0.1000000000 0.1000000000 0.1000000000 0.1000000000 0.1000000000 0.1000000000 0.1000000000 0.1000000000 0.1000000000 0.1000000000 0.1000000000 0.1000000000 0.1000000000 0.1000000000 0.1000000000 0.1000000000 0.1000000000 0.1000000000 0.1000000000 0.1000000000 0.1000000000 0.1000000000 0.1000000000 0.1000000000 0.1000000000 0.1000000000 0.1000000000 0.1000000000 0.1000000000 0.1000000000 0.1000000000 0.1000000000 0.1000000000 0.1000000000 0.1000000000 0.1000000000 0.1000000000 0.1000000000 0.1000000000 0.1000000000 0.1000000000 0.1000000000 0.1000000000 0.1000000000 0.1000000000 0.1000000000 0.1000000000 0.1000000000 0.1000000000 0.1000000000 0.1000000000 0.1000000000 0.1000000000 0.1000000000 0.1000000000 0.1000000000 0.1000000000 0.1000000000 0.1000000000 0.1000000000 0.1000000000 0.1000000000 0.1000000000 0.1000000000 0.1000000000 0.1000000000 0.1000000000 0.1000000000 0.1000000000 0.1000000000 0.1000000000 0.1000000000 0.1000000000 0.1000000000 0.1000000000 0.1000000000 0.1000000000 0.1000000000 0.1000000000 0.1000000000 0.1000000000 0.1000000000 0.1000000000 0.1000000000 0.1000000000 0.1000000000 0.1000000000 0.1000000000 0.1000000000 0.1000000000 0.1000000000 0.1000000000 0.1000000000 0.1000000000 0.1000000000 0.1000000000 0.1000000000 0.1000000000 0.1000000000 0.1000000000 0.1000000000 0.1000000000 0.1000000000 0.1000000000 0.1000000000 0.1000000000 0.1000000000 0.1000000000 0.1000000000 0.1000000000 0.1000000000 0.1000000000 0.1000000000 0.1000000000 0.1000000000 0.1000000000 0.1000000000 0.1000000000 0.1000000000 0.1000000000 0.1000000000 0.1000000000 0.1000000000 0.1000000000 0.1000000000 0.1000000000 0.1000000000 0.1000000000 0.1000000000 0.1000000000 0.1000000000 0.1000000000 0.1000000000 0.1000000000 0.1000000000 0.1000000000 0.1000000000 0.1000000000 0.1000000000 0.1000000000 0.1000000000 0.1000000000 0.1000000000 0.1000000000 0.1000000000 0.1000000000 0.1000000000 0.1000000000 0.1000000000 0.1000000000 0.1000000000 0.1000000000 0.1000000000 0.1000000000 0.1000000000 0.1000000000 0.1000000000 0.1000000000 0.1000000000 0.1000000000 0.1000000000 0.1000000000 0.1000000000 0.1000000000 0.1000000000 0.1000000000 0.1000000000 0.1000000000 0.1000000000 0.1000000000 0.1000000000 0.1000000000 0.1000000000 0.1000000000 0.1000000000 0.1000000000 0.1000000000 0.1000000000 0.1000000000 0.1000000000 0.1000000000 0.1000000000 0.1000000000 0.1000000000 0.1000000000 0.1000000000 0.1000000000 0.1000000000 0.1000000000 0.1000000000 0.1000000000 0.1000000000 0.1000000000 0.1000000000 0.1000000000 0.1000000000 0.1000000000 0.1000000000 0.1000000000 0.1000000000 0.1000000000 0.1000000000 0.1000000000 0.1000000000 0.1000000000 0.1000000000 0.1000000000 0.1000000000 0.1000000000 0.1000000000 0.1000000000 0.1000000000 0.1000000000 0.1000000000 0.1000000000 0.1000000000 0.1000000000 0.1000000000 0.1000000000 0.1000000000 0.1000000000 0.1000000000 0.1000000000 0.1000000000 0.1000000000 0.1000000000 0.1000000000 0.1000000000 0.1000000000 0.1000000000 0.1000000000 0.1000000000 0.1000000000 0.1000000000 0.1000000000 0.1000000000 0.1000000000 0.1000000000 0.1000000000 0.1000000000 0.1000000000 0.1000000000 0.1000000000 0.1000000000 0.1000000000 0.1000000000 0.1000000000 0.1000000000 0.1000000000 0.1000000000 0.1000000000 0.1000000000 0.1000000000 0.1000000000 0.1000000000 0.1000000000 0.1000000000 0.1000000000 0.1000000000 0.1000000000 0.1000000000 0.1000000000 0.1000000000 0.1000000000 0.1000000000 0.1000000000 0.1000000000 0.1000000000 0.1000000000 0.1000000000 0.1000000000 0.1000000000 0.1000000000 0.1000000000 0.1000000000 0.1000000000 0.1000000000 0.1000000000 0.1000000000 0.1000000000 0.1000000000 0.1000000000 0.1000000000 0.1000000000 0.1000000000 0.1000000000 0.1000000000 0.1000000000 0.1000000000 0.1000000000 0.1000000000 0.1000000000 0.1000000000 0.1000000000 0.1000000000 0.1000000000 0.1000000000 0.1000000000 0.1000000000 0.1000000000 0.1000000000 0.1000000000 0.1000000000 0.1000000000 0.1000000000 0.1000000000 0.1000000000 0.1000000000 0.1000000000 0.10000000