<?xml version="1.0"?>
<VTKFile type="UnstructuredGrid" version="0.1" byte_order="LittleEndian">
  <UnstructuredGrid>
    <FieldData>
      <DataArray type="Float32" Name="TIME"  NumberOfTuples="1" format="ascii"> 0.3000000000 </DataArray>
      <DataArray type="Int32"   Name="STEP"  NumberOfTuples="1" format="ascii"> 75000 </DataArray>
    </FieldData>
    <Piece NumberOfPoints="11600" NumberOfCells="11600">
      <Points>
        <DataArray type="Float32" NumberOfComponents="3" format="ascii">
 -0.0512090094 -0.1095058202 0.0000000000 0.1487892918 -0.1086990657 0.0000000000 0.3487875744 -0.1078924458 0.0000000000 0.5487857522 -0.1070858546 0.0000000000 0.7487839712 -0.1062792579 0.0000000000 0.9487821258 -0.1054726508 0.0000000000 1.1487802200 -0.1046660691 0.0000000000 1.3487782879 -0.1038595332 0.0000000000 1.5487760729 -0.1030530285 0.0000000000 1.7487740547 -0.1022465593 0.0000000000 1.9487719857 -0.1014401637 0.0000000000 2.1487699012 -0.1006338535 0.0000000000 2.3487678272 -0.0998275866 0.0000000000 2.5487654284 -0.0990214603 0.0000000000 2.7487633720 -0.0982154344 0.0000000000 2.9487613330 -0.0974094718 0.0000000000 3.1487593349 -0.0966035583 0.0000000000 3.3487573834 -0.0957976669 0.0000000000 3.5487552329 -0.0949918017 0.0000000000 3.7487533152 -0.0941859986 0.0000000000 3.9487514141 -0.0933802537 0.0000000000 4.1487495631 -0.0925745441 0.0000000000 4.3487477495 -0.0917687880 0.0000000000 4.5487458092 -0.0909630600 0.0000000000 4.7487440082 -0.0901573465 0.0000000000 4.9487421992 -0.0893516710 0.0000000000 5.1487404036 -0.0885459852 0.0000000000 5.3487386318 -0.0877402678 0.0000000000 5.5487367800 -0.0869344540 0.0000000000 5.7487350526 -0.0861285952 0.0000000000 5.9487333405 -0.0853226625 0.0000000000 6.1487316414 -0.0845166611 0.0000000000 6.3487299476 -0.0837106234 0.0000000000 6.5487281718 -0.0829045792 0.0000000000 6.7487264878 -0.0820986287 0.0000000000 6.9487248569 -0.0812927461 0.0000000000 7.1487233105 -0.0804867909 0.0000000000 7.3487217831 -0.0796807571 0.0000000000 7.5487208431 -0.0788745641 0.0000000000 7.7487193857 -0.0780682457 0.0000000000 7.9487180144 -0.0772619626 0.0000000000 8.1487167092 -0.0764556679 0.0000000000 8.3487154054 -0.0756494651 0.0000000000 8.5487162539 -0.0748430289 0.0000000000 8.7487151062 -0.0740361644 0.0000000000 8.9487141195 -0.0732293659 0.0000000000 9.1487131837 -0.0724224879 0.0000000000 9.3487121711 -0.0716155698 0.0000000000 9.5487140038 -0.0708079932 0.0000000000 9.7487129819 -0.0699998811 0.0000000000 9.9487120427 -0.0691918224 0.0000000000 10.1487110919 -0.0683838419 0.0000000000 10.3487100664 -0.0675760565 0.0000000000 10.5487119575 -0.0667678325 0.0000000000 10.7487111836 -0.0659592742 0.0000000000 10.9487106301 -0.0651507289 0.0000000000 11.1487101156 -0.0643420207 0.0000000000 11.3487094102 -0.0635335061 0.0000000000 11.5487126703 -0.0627243541 0.0000000000 11.7487119610 -0.0619146664 0.0000000000 11.9487114859 -0.0611050264 0.0000000000 12.1487110232 -0.0602952229 0.0000000000 12.3487103823 -0.0594855365 0.0000000000 12.5487136677 -0.0586750019 0.0000000000 12.7487128222 -0.0578644211 0.0000000000 12.9487168388 -0.0570532802 0.0000000000 13.1487161236 -0.0562407139 0.0000000000 13.3487154478 -0.0554283472 0.0000000000 13.5487188981 -0.0546150160 0.0000000000 13.7487180155 -0.0537998025 0.0000000000 13.9487236217 -0.0529803361 0.0000000000 14.1491379808 -0.0524845915 0.0000000000 14.3491378962 -0.0522894781 0.0000000000 14.5491378979 -0.0520943260 0.0000000000 14.7491378148 -0.0518991776 0.0000000000 14.9491378134 -0.0517040068 0.0000000000 15.1491377331 -0.0515088003 0.0000000000 15.3491376591 -0.0513136020 0.0000000000 15.5491377061 -0.0511183661 0.0000000000 15.7491376249 -0.0509230677 0.0000000000 15.9491376824 -0.0507277636 0.0000000000 16.1491376175 -0.0505323573 0.0000000000 16.3491375602 -0.0503368965 0.0000000000 16.5560252343 -0.0412821051 0.0000000000 16.7560244044 -0.0408090797 0.0000000000 16.9560225961 -0.0403362316 0.0000000000 17.1560218931 -0.0398633904 0.0000000000 17.3560214744 -0.0393898554 0.0000000000 17.5560209608 -0.0389162995 0.0000000000 17.7560203180 -0.0384426906 0.0000000000 17.9560193184 -0.0379690519 0.0000000000 18.1560183034 -0.0374956870 0.0000000000 18.3560172157 -0.0370228427 0.0000000000 18.5560161954 -0.0365507155 0.0000000000 18.7560154979 -0.0360791647 0.0000000000 18.9560156272 -0.0356074779 0.0000000000 19.1560153596 -0.0351351034 0.0000000000 19.3560151200 -0.0346624618 0.0000000000 19.5560146495 -0.0341897189 0.0000000000 19.7560141488 -0.0337170299 0.0000000000 0.0480915051 0.0641013146 0.0000000000 0.2480898478 0.0649079442 0.0000000000 0.4480881259 0.0657145511 0.0000000000 0.6480863454 0.0665211564 0.0000000000 0.8480845254 0.0673277696 0.0000000000 1.0480826588 0.0681343763 0.0000000000 1.2480807378 0.0689409424 0.0000000000 1.4480787313 0.0697474855 0.0000000000 1.6480766905 0.0705539673 0.0000000000 1.8480746657 0.0713604022 0.0000000000 2.0480726272 0.0721667578 0.0000000000 2.2480705636 0.0729730458 0.0000000000 2.4480684531 0.0737792554 0.0000000000 2.6480663526 0.0745853139 0.0000000000 2.8480643162 0.0753912984 0.0000000000 3.0480623160 0.0761972229 0.0000000000 3.2480603358 0.0770031172 0.0000000000 3.4480583444 0.0778089932 0.0000000000 3.6480563769 0.0786148074 0.0000000000 3.8480544645 0.0794205725 0.0000000000 4.0480525868 0.0802262883 0.0000000000 4.2480507355 0.0810320055 0.0000000000 4.4480489065 0.0818377479 0.0000000000 4.6480470953 0.0826434641 0.0000000000 4.8480452981 0.0834491721 0.0000000000 5.0480434876 0.0842548599 0.0000000000 5.2480416697 0.0850605740 0.0000000000 5.4480398313 0.0858663445 0.0000000000 5.6480380094 0.0866721675 0.0000000000 5.8480362292 0.0874780607 0.0000000000 6.0480344823 0.0882840167 0.0000000000 6.2480327591 0.0890900284 0.0000000000 6.4480310439 0.0898960777 0.0000000000 6.6480293563 0.0907020723 0.0000000000 6.8480277065 0.0915079919 0.0000000000 7.0480260857 0.0923139070 0.0000000000 7.2480245366 0.0931198997 0.0000000000 7.4480231080 0.0939259733 0.0000000000 7.6480217433 0.0947322494 0.0000000000 7.8480203854 0.0955385274 0.0000000000 8.0480191103 0.0963447967 0.0000000000 8.2480179978 0.0971510546 0.0000000000 8.4480172973 0.0979572692 0.0000000000 8.6480166546 0.0987640436 0.0000000000 8.8480157609 0.0995708565 0.0000000000 9.0480148699 0.1003776881 0.0000000000 9.2480140933 0.1011846080 0.0000000000 9.4480137422 0.1019917029 0.0000000000 9.6480134140 0.1027996721 0.0000000000 9.8480126814 0.1036077412 0.0000000000 10.0480119025 0.1044157328 0.0000000000 10.2480112418 0.1052236112 0.0000000000 10.4480110845 0.1060314707 0.0000000000 10.6480110184 0.1068399554 0.0000000000 10.8480106072 0.1076484538 0.0000000000 11.0480102017 0.1084570569 0.0000000000 11.2480099778 0.1092657184 0.0000000000 11.4480104001 0.1100743411 0.0000000000 11.6480107961 0.1108839525 0.0000000000 11.8480105187 0.1116935750 0.0000000000 12.0480101434 0.1125032953 0.0000000000 12.2480099402 0.1133130715 0.0000000000 12.4480104906 0.1141229237 0.0000000000 12.6480112295 0.1149336254 0.0000000000 12.8480119396 0.1157442376 0.0000000000 13.0480124443 0.1165563744 0.0000000000 13.2480123150 0.1173687474 0.0000000000 13.4480124412 0.1181813554 0.0000000000 13.6480122873 0.1189958015 0.0000000000 13.8480115325 0.1198115312 0.0000000000 14.0489690407 0.1206228325 0.0000000000 14.2489689622 0.1208179567 0.0000000000 14.4489688983 0.1210130845 0.0000000000 14.6489688417 0.1212082394 0.0000000000 14.8489687799 0.1214033970 0.0000000000 15.0489687142 0.1215985909 0.0000000000 15.2489686486 0.1217937874 0.0000000000 15.4489685917 0.1219889911 0.0000000000 15.6489685334 0.1221842733 0.0000000000 15.8489684760 0.1223795660 0.0000000000 16.0489684108 0.1225749295 0.0000000000 16.2489683291 0.1227703395 0.0000000000 16.4556163484 0.1316862431 0.0000000000 16.6556154722 0.1321591035 0.0000000000 16.8556143361 0.1326322617 0.0000000000 17.0556131321 0.1331050081 0.0000000000 17.2556122823 0.1335781603 0.0000000000 17.4556115992 0.1340516344 0.0000000000 17.6556109108 0.1345252018 0.0000000000 17.8556101440 0.1349988316 0.0000000000 18.0556093041 0.1354723308 0.0000000000 18.2556085008 0.1359454508 0.0000000000 18.4556077567 0.1364179011 0.0000000000 18.6556071092 0.1368897185 0.0000000000 18.8556066154 0.1373612625 0.0000000000 19.0556062472 0.1378333284 0.0000000000 19.2556059306 0.1383058569 0.0000000000 19.4556055258 0.1387785781 0.0000000000 19.6556049636 0.1392512196 0.0000000000 19.8556044122 0.1397239341 0.0000000000 -0.0526061335 0.2369018071 0.0000000000 0.1473921999 0.2377083408 0.0000000000 0.3473905109 0.2385149531 0.0000000000 0.5473887128 0.2393215668 0.0000000000 0.7473869316 0.2401281950 0.0000000000 0.9473851018 0.2409348099 0.0000000000 1.1473832312 0.2417413949 0.0000000000 1.3473813318 0.2425479582 0.0000000000 1.5473792458 0.2433544708 0.0000000000 1.7473772899 0.2441609292 0.0000000000 1.9473753085 0.2449673239 0.0000000000 2.1473733143 0.2457736459 0.0000000000 2.3473713273 0.2465798955 0.0000000000 2.5473691778 0.2473860157 0.0000000000 2.7473672047 0.2481920414 0.0000000000 2.9473652282 0.2489979849 0.0000000000 3.1473632649 0.2498038760 0.0000000000 3.3473613342 0.2506097486 0.0000000000 3.5473592868 0.2514155785 0.0000000000 3.7473574061 0.2522213636 0.0000000000 3.9473555342 0.2530270928 0.0000000000 4.1473536844 0.2538327918 0.0000000000 4.3473518764 0.2546384944 0.0000000000 4.5473500420 0.2554442087 0.0000000000 4.7473482832 0.2562499461 0.0000000000 4.9473464952 0.2570556736 0.0000000000 5.1473446880 0.2578613938 0.0000000000 5.3473428743 0.2586671547 0.0000000000 5.5473409457 0.2594729631 0.0000000000 5.7473391476 0.2602788117 0.0000000000 5.9473373642 0.2610847174 0.0000000000 6.1473356079 0.2618906899 0.0000000000 6.3473338808 0.2626967154 0.0000000000 6.5473321518 0.2635027378 0.0000000000 6.7473304824 0.2643087154 0.0000000000 6.9473288224 0.2651146527 0.0000000000 7.1473271852 0.2659206083 0.0000000000 7.3473255829 0.2667266478 0.0000000000 7.5473241698 0.2
[...]
      <PointData Scalars="radius">
        <DataArray type="Float32" Name="radius" format="ascii">
 0.1000000000 0.1000000000 0.1000000000 0.1000000000 0.1000000000 0.1000000000 0.1000000000 0.1000000000 0.1000000000 0.1000000000 0.1000000000 0.1000000000 0.1000000000 0.1000000000 0.1000000000 0.1000000000 0.1000000000 0.1000000000 0.1000000000 0.1000000000 0.1000000000 0.1000000000 0.1000000000 0.1000000000 0.1000000000 0.1000000000 0.1000000000 0.1000000000 0.1000000000 0.1000000000 0.1000000000 0.1000000000 0.1000000000 0.1000000000 0.1000000000 0.1000000000 0.1000000000 0.1000000000 0.1000000000 0.1000000000 0.1000000000 0.1000000000 0.1000000000 0.1000000000 0.1000000000 0.1000000000 0.1000000000 0.1000000000 0.1000000000 0.1000000000 0.1000000000 0.1000000000 0.1000000000 0.1000000000 0.1000000000 0.1000000000 0.1000000000 0.1000000000 0.1000000000 0.1000000000 0.1000000000 0.1000000000 0.1000000000 0.1000000000 0.1000000000 0.1000000000 0.1000000000 0.1000000000 0.1000000000 0.1000000000 0.1000000000 0.1000000000 0.1000000000 0.1000000000 0.1000000000 0.1000000000 0.1000000000 0.1000000000 0.1000000000 0.1000000000 0.1000000000 0.1000000000 0.1000000000 0.1000000000 0.1000000000 0.1000000000 0.1000000000 0.1000000000 0.1000000000 0.1000000000 0.1000000000 0.1000000000 0.1000000000 0.1000000000 0.1000000000 0.1000000000 0.1000000000 0.1000000000 0.1000000000 0.1000000000 0.1000000000 0.1000000000 0.1000000000 0.1000000000 0.1000000000 0.1000000000 0.1000000000 0.1000000000 0.1000000000 0.1000000000 0.1000000000 0.1000000000 0.1000000000 0.1000000000 0.1000000000 0.1000000000 0.1000000000 0.1000000000 0.1000000000 0.1000000000 0.1000000000 0.1000000000 0.1000000000 0.1000000000 0.1000000000 0.1000000000 0.1000000000 0.1000000000 0.1000000000 0.1000000000 0.1000000000 0.1000000000 0.1000000000 0.1000000000 0.1000000000 0.1000000000 0.1000000000 0.1000000000 0.1000000000 0.1000000000 0.1000000000 0.1000000000 0.1000000000 0.1000000000 0.1000000000 0.1000000000 0.1000000000 0.1000000000 0.1000000000 0.1000000000 0.1000000000 0.1000000000 0.1000000000 0.1000000000 0.1000000000 0.1000000000 0.1000000000 0.1000000000 0.1000000000 0.1000000000 0.1000000000 0.1000000000 0.1000000000 0.1000000000 0.1000000000 0.1000000000 0.1000000000 0.1000000000 0.1000000000 0.1000000000 0.1000000000 0.1000000000 0.1000000000 0.1000000000 0.1000000000 0.1000000000 0.1000000000 0.1000000000 0.1000000000 0.1000000000 0.1000000000 0.1000000000 0.1000000000 0.1000000000 0.1000000000 0.1000000000 0.1000000000 0.1000000000 0.1000000000 0.1000000000 0.1000000000 0.1000000000 0.1000000000 0.1000000000 0.1000000000 0.1000000000 0.1000000000 0.1000000000 0.1000000000 0.1000000000 0.1000000000 0.1000000000 0.1000000000 0.1000000000 0.1000000000 0.1000000000 0.1000000000 0.1000000000 0.1000000000 0.1000000000 0.1000000000 0.1000000000 0.1000000000 0.1000000000 0.1000000000 0.1000000000 0.1000000000 0.1000000000 0.1000000000 0.1000000000 0.1000000000 0.1000000000 0.1000000000 0.1000000000 0.1000000000 0.1000000000 0.1000000000 0.1000000000 0.1000000000 0.1000000000 0.1000000000 0.1000000000 0.1000000000 0.1000000000 0.1000000000 0.1000000000 0.1000000000 0.1000000000 0.1000000000 0.1000000000 0.1000000000 0.1000000000 0.1000000000 0.1000000000 0.1000000000 0.1000000000 0.1000000000 0.1000000000 0.1000000000 0.1000000000 0.1000000000 0.1000000000 0.1000000000 0.1000000000 0.1000000000 0.1000000000 0.1000000000 0.1000000000 0.1000000000 0.1000000000 0.1000000000 0.1000000000 0.1000000000 0.1000000000 0.1000000000 0.1000000000 0.1000000000 0.1000000000 0.1000000000 0.1000000000 0.1000000000 0.1000000000 0.1000000000 0.1000000000 0.1000000000 0.1000000000 0.1000000000 0.1000000000 0.1000000000 0.1000000000 0.1000000000 0.1000000000 0.1000000000 0.1000000000 0.1000000000 0.1000000000 0.1000000000 0.1000000000 0.1000000000 0.1000000000 0.1000000000 0.1000000000 0.1000000000 0.1000000000 0.1000000000 0.1000000000 0.1000000000 0.1000000000 0.1000000000 0.1000000000 0.1000000000 0.1000000000 0.1000000000 0.1000000000 0.1000000000 0.1000000000 0.1000000000 0.1000000000 0.1000000000 0.1000000000 0.1000000000 0.1000000000 0.1000000000 0.1000000000 0.1000000000 0.1000000000 0.1000000000 0.1000000000 0.1000000000 0.1000000000 0.1000000000 0.1000000000 0.1000000000 0.1000000000 0.1000000000 0.1000000000 0.1000000000 0.1000000000 0.1000000000 0.1000000000 0.1000000000 0.1000000000 0.1000000000 0.1000000000 0.1000000000 0.1000000000 0.1000000000 0.1000000000 0.1000000000 0.1000000000 0.1000000000 0.1000000000 0.1000000000 0.1000000000 0.1000000000 0.1000000000 0.1000000000 0.1000000000 0.1000000000 0.1000000000 0.1000000000 0.1000000000 0.1000000000 0.1000000000 0.1000000000 0.1000000000 0.1000000000 0.1000000000 0.1000000000 0.1000000000 0.1000000000 0.1000000000 0.1000000000 0.1000000000 0.1000000000 0.1000000000 0.1000000000 0.1000000000 0.1000000000 0.1000000000 0.1000000000 0.1000000000 0.1000000000 0.1000000000 0.1000000000 0.1000000000 0.1000000000 0.1000000000 0.1000000000 0.1000000000 0.1000000000 0.1000000000 0.1000000000 0.1000000000 0.1000000000 0.1000000000 0.1000000000 0.1000000000 0.1000000000 0.1000000000 0.1000000000 0.1000000000 0.1000000000 0.1000000000 0.1000000000 0.1000000000 0.1000000000 0.1000000000 0.1000000000 0.1000000000 0.1000000000 0.1000000000 0.1000000000 0.1000000000 0.1000000000 0.1000000000 0.1000000000 0.1000000000 0.1000000000 0.1000000000 0.1000000000 0.1000000000 0.1000000000 0.1000000000 0.1000000000 0.1000000000 0.1000000000 0.1000000000 0.1000000000 0.1000000000 0.1000000000 0.1000000000 0.1000000000 0.1000000000 0.1000000000 0.1000000000 0.1000000000 0.1000000000 0.1000000000 0.1000000000 0.1000000000 0.1000000000 0.1000000000 0.1000000000 0.1000000000 0.1000000000 0.1000000000 0.1000000000 0.1000000000 0.1000000000 0.1000000000 0.1000000000 0.1000000000 0.1000000000 0.1000000000 0.1000000000 0.1000000000 0.1000000000 0.1000000000 0.1000000000 0.1000000000 0.1000000000 0.1000000000 0.1000000000 0.1000000000 0.1000000000 0.1000000000 0.1000000000 0.1000000000 0.1000000000 0.1000000000 0.1000000000 0.1000000000 0.1000000000 0.1000000000 0.1000000000 0.1000000000 0.1000000000 0.1000000000 0.1000000000 0.1000000000 0.1000000000 0.1000000000 0.1000000000 0.1000000000 0.1000000000 0.1000000000 0.1000000000 0.1000000000 0.1000000000 0.1000000000 0.1000000000 0.1000000000 0.1000000000 0.1000000000 0.1000000000 0.1000000000 0.1000000000 0.1000000000 0.1000000000 0.1000000000 0.1000000000 0.1000000000 0.1000000000 0.1000000000 0.1000000000 0.1000000000 0.1000000000 0.1000000000 0.1000000000 0.1000000000 0.1000000000 0.1000000000 0.1000000000 0.1000000000 0.1000000000 0.1000000000 0.1000000000 0.1000000000 0.1000000000 0.1000000000 0.1000000000 0.1000000000 0.1000000000 0.1000000000 0.1000000000 0.1000000000 0.1000000000 0.1000000000 0.1000000000 0.1000000000 0.1000000000 0.1000000000 0.1000000000 0.1000000000 0.1000000000 0.1000000000 0.1000000000 0.1000000000 0.1000000000 0.1000000000 0.1000000000 0.1000000000 0.1000000000 0.1000000000 0.1000000000 0.1000000000 0.1000000000 0.1000000000 0.1000000000 0.1000000000 0.1000000000 0.1000000000 0.1000000000 0.1000000000 0.1000000000 0.1000000000 0.1000000000 0.1000000000 0.1000000000 0.1000000000 0.1000000000 0.1000000000 0.1000000000 0.1000000000 0.1000000000 0.1000000000 0.1000000000 0.1000000000 0.1000000000 0.1000000000 0.1000000000 0.1000000000 0.1000000000 0.1000000000 0.1000000000 0.1000000000 0.1000000000 0.1000000000 0.1000000000 0.1000000000 0.1000000000 0.1000000000 0.1000000000 0.1000000000 0.1000000000 0.1000000000 0.1000000000 0.1000000000 0.1000000000 0.1000000000 0.1000000000 0.1000000000 0.1000000000 0.1000000000 0.1000000000 0.1000000000 0.1000000000 0.1000000000 0.1000000000 0.1000000000 0.1000000000 0.1000000000 0.1000000000 0.1000000000 0.1000000000 0.1000000000 0.1000000000 0.1000000000 0.1000000000 0.1000000000 0.1000000000 0.1000000000 0.1000000000 0.1000000000 0.1000000000 0.1000000000 0.1000000000 0.1000000000 0.1000000000 0.1000000000 0.1000000000 0.1000000000 0.1000000000 0.1000000000 0.1000000000 0.1000000000 0.1000000000 0.1000000000 0.1000000000 0.1000000000 0.1000000000 0.1000000000 0.1000000000 0.1000000000 0.1000000000 0.1000000000 0.1000000000 0.1000000000 0.1000000000 0.1000000000 0.1000000000 0.1000000000 0.1000000000 0.1000000000 0.1000000000 0.1000000000 0.1000000000 0.1000000000 0.1000000000 0.1000000000 0.1000000000 0.1000000000 0.1000000000 0.1000000000 0.1000000000 0.1000000000 0.1000000000 0.1000000000 0.1000000000 0.1000000000 0.1000000000 0.1000000000 0.1000000000 0.1000000000 0.1000000000 0.1000000000 0.1000000000 0.1000000000 0.1000000000 0.1000000000 0.1000000000 0.1000000000 0.1000000000 0.1000000000 0.1000000000 0.1000000000 0.1000000000 0.1000000000 0.1000000000 0.1000000000 0.1000000000 0.1000000000 0.1000000000 0.1000000000 0.1000000000 0.1000000000 0.1000000000 0.1000000000 0.1000000000 0.1000000000 0.1000000000 0.1000000000 0.1000000000 0.1000000000 0.1000000000 0.1000000000 0.1000000000 0.1000000000 0.1000000000 0.1000000000 0.1000000000 0.1000000000 0.1000000000 0.1000000000 0.1000000000 0.1000000000 0.1000000000 0.1000000000 0.1000000000 0.1000000000 0.1000000000 0.1000000000 0.1000000000 0.1000000000 0.1000000000 0.1000000000 0.1000000000 0.1000000000 0.1000000000 0.1000000000 0.1000000000 0.1000000000 0.1000000000 0.1000000000 0.1000000000 0.1000000000 0.1000000000 0.1000000000 0.1000000000 0.1000000000 0.1000000000 0.1000000000 0.1000000000 0.1000000000 0.1000000000 0.1000000000 0.1000000000 0.1000000000 0.1000000000 0.1000000000 0.1000000000 0.1000000000 0.1000000000 0.1000000000 0.1000000000 0.1000000000 0.1000000000 0.1000000000 0.1000000000 0.1000000000 0.1000000000 0.1000000000 0.1000000000 0.1000000000 0.1000000000 0.1000000000 0.1000000000 0.1000000000 0.1000000000 0.1000000000 0.1000000000 0.1000000000 0.1000000000 0.1000000000 0.1000000000 0.1000000000 0.1000000000 0.1000000000 0.1000000000 0.1000000000 0.1000000000 0.1000000000 0.1000000000 0.1000000000 0.1000000000 0.1000000000 0.1000000000 0.1000000000 0.1000000000 0.1000000000 0.1000000000 0.1000000000 0.1000000000 0.1000000000 0.1000000000 0.1000000000 0.1000000000 0.1000000000 0.1000000000 0.1000000000 0.1000000000 0.1000000000 0.1000000000 0.1000000000 0.1000000000 0.1000000000 0.1000000000 0.1000000000 0.1000000000 0.1000000000 0.1000000000 0.1000000000 0.1000000000 0.1000000000 0.1000000000 0.1000000000 0.1000000000 0.1000000000 0.1000000000 0.1000000000 0.1000000000 0.1000000000 0.1000000000 0.1000000000 0.1000000000 0.1000000000 0.1000000000 0.1000000000 0.1000000000 0.1000000000 0.1000000000 0.1000000000 0.1000000000 0.1000000000 0.1000000000 0.1000000000 0.1000000000 0.1000000000 0.1000000000 0.1000000000 0.1000000000 0.1000000000 0.1000000000 0.1000000000 0.1000000000 0.1000000000 0.1000000000 0.1000000000 0.1000000000 0.1000000000 0.1000000000 0.1000000000 0.1000000000 0.1000000000 0.1000000000 0.1000000000 0.1000000000 0.1000000000 0.1000000000 0.1000000000 0.1000000000 0.1000000000 0.1000000000 0.1000000000 0.1000000000 0.1000000000 0.1000000000 0.1000000000 0.1000000000 0.1000000000 0.1000000000 0.1000000000 0.1000000000 0.1000000000 0.1000000000 0.1000000000 0.1000000000 0.1000000000 0.1000000000 0.1000000000 0.1000000000 0.1000000000 0.1000000000 0.1000000000 0.1000000000 0.1000000000 0.1000000000 0.1000000000 0.1000000000 0.1000000000 0.1000000000 0.1000000000 0.1000000000 0.1000000000 0.1000000000 0.1000000000 0.1000000000 0.1000000000 0.1000000000 0.1000000000 0.1000000000 0.1000000000 0.1000000000 0.1000000000 0.1000000000 0.1000000000 0.1000000000 0.1000000000 0.1000000000 0.1000000000 0.1000000000 0.1000000000 0.1000000000 0.1000000000 0.1000000000 0.1000000000 0.1000000000 0.1000000000 0.1000000000 0.1000000000 0.1000000000 0.1000000000 0.1000000000 0.1000000000 0.1000000000 0.1000000000 0.1000000000 0.1000000000 0.1000000000 0.1000000000 0.1000000000 0.1000000000 0.1000000000 0.1000000000 0.1000000000 0.1000000000 0.1000000000 0.1000000000 0.1000000000 0.1000000000 0.1000000000 0.1000000000 0.1000000000 0.1000000000 0.1000000000 0.1000000000 0.1000000000 0.1000000000 0.1000000000 0.1000000000 0.1000000000 0.1000000000 0.1000000000 0.1000000000 0.1000000000 0.1000000000 0.1000000000 0.1000000000 0.1000000000 0.1000000000 0.1000000000 0.1000000000 0.1000000000 0.1000000000 0.1000000000 0.1000000000 0.1000000000 0.1000000000 0.1000000000 0.1000000000 0.1000000000 0.1000000000 0.1000000000 0.1000000000 0.1000000000 0.1000000000 0.1000000000 0.1000000000 0.1000000000 0.1000000000 0.1000000000 0.1000000000 0.1000000000 0.1000000000 0.1000000000 0.1000000000 0.1000000000 0.1000000000 0.1000000000 0.1000000000 0.1000000000 0.1000000000 0.1000000000 0.1000000000 0.1000000000 0.1000000000 0.1000000000 0.1000000000 0.1000000000 0.1000000000 0.1000000000 0.1000000000 0.1000000000 0.1000000000 0.1000000000 0.1000000000 0.1000000000 0.1000000000 0.1000000000 0.1000000000 0.1000000000 0.1000000000 0.1000000000 0.1000000000 0.1000000000 0.1000000000 0.1000000000 0.1000000000 0.1000000000 0.1000000000 0.1000000000 0.1000000000 0.1000000000 0.1000000000 0.1000000000 0.1000000000 0.1000000000 0.1000000000 0.1000000000 0.1000000000 0.1000000000 0.1000000000 0.1000000000 0.1000000000 0.1000000000 0.1000000000 0.1000000000 0.1000000000 0.1000000000 0.1000000000 0.1000000000 0.1000000000 0.1000000000 0.1000000000 0.1000000000 0.1000000000 0.1000000000 0.1000000000 0.1000000000 0.1000000000 0.1000000000 0.1000000000 0.1000000000 0.1000000000 0.1000000000 0.1000000000 0.1000000000 0.1000000000 0.1000000000 0.1000000000 0.1000000000 0.1000000000 0.1000000000 0.1000000000 0.1000000000 0.1000000000 0.1000000000 0.1000000000 0.1000000000 0.1000000000 0.1000000000 0.1000000000 0.1000000000 0.1000000000 0.1000000000 0.1000000000 0.1000000000 0.1000000000 0.1000000000 0.1000000000 0.1000000000 0.1000000000 0.1000000000 0.1000000000 0.1000000000 0.1000000000 0.1000000000 0.1000000000 0.1000000000 0.1000000000 0.1000000000 0.1000000000 0.1000000000 0.1000000000 0.1000000000 0.1000000000 0.1000000000 0.1000000000 0.1000000000 0.1000000000 0.1000000000 0.1000000000 0.1000000000 0.1000000000 0.1000000000 0.1000000000 0.1000000000 0.1000000000 0.1000000000 0.1000000000 0.1000000000 0.1000000000 0.1000000000 0.1000000000 0.1000000000 0.1000000000 0.1000000000 0.1000000000 0.1000000000 0.1000000000 0.1000000000 0.1000000000 0.1000000000 0.1000000000 0.1000000000 0.1000000000 0.1000000000 0.1000000000 0.1000000000 0.1000000000 0.1000000000 0.1000000000 0.1000000000 0.1000000000 0.1000000000 0.1000000000 0.1000000000 0.1000000000 0.1000000000 0.1000000000 0.1000000000 0.1000000000 0.1000000000 0.1000000000 0.1000000000 0.1000000000 0.1000000000 0.1000000000 0.1000000000 0.1000000000 0.1000000000 0.1000000000 0.1000000000 0.1000000000 0.1000000000 0.1000000000 0.1000000000 0.1000000000 0.1000000000 0.1000000000 0.1000000000 0.1000000000 0.1000000000 0.1000000000 0.1000000000 0.1000000000 0.1000000000 0.1000000000 0.1000000000 0.1000000000 0.1000000000 0.1000000000 0.1000000000 0.1000000000 0.1000000000 0.1000000000 0.1000000000 0.1000000000 0.1000000000 0.1000000000 0.1000000000 0.1000000000 0.1000000000 0.1000000000 0.1000000000 0.1000000000 0.1000000000 0.1000000000 0.1000000000 0.1000000000 0.1000000000 0.1000000000 0.1000000000 0.1000000000 0.1000000000 0.1000000000 0.1000000000 0.1000000000 0.1000000000 0.1000000000 0.1000000000 0.1000000000 0.1000000000 0.1000000000 0.1000000000 0.1000000000 0.1000000000 0.1000000000 0.1000000000 0.1000000000 0.1000000000 0.1000000000 0.1000000000 0.1000000000 0.1000000000 0.1000000000 0.1000000000 0.1000000000 0.1000000000 0.1000000000 0.1000000000 0.1000000000 0.1000000000 0.1000000000 0.1000000000 0.1000000000 0.1000000000 0.1000000000 0.1000000000 0.1000000000 0.1000000000 0.1000000000 0.1000000000 0.1000000000 0.1000000000 0.1000000000 0.1000000000 0.1000000000 0.1000000000 0.1000000000 0.1000000000 0.1000000000 0.1000000000 0.1000000000 0.1000000000 0.1000000000 0.1000000000 0.1000000000 0.1000000000 0.1000000000 0.1000000000 0.1000000000 0.1000000000 0.1000000000 0.1000000000 0.1000000000 0.1000000000 0.1000000000 0.1000000000 0.1000000000 0.1000000000 0.1000000000 0.1000000000 0.1000000000 0.1000000000 0.1000000000 0.1000000000 0.1000000000 0.1000000000 0.1000000000 0.1000000000 0.1000000000 0.1000000000 0.1000000000 0.1000000000 0.1000000000 0.1000000000 0.1000000000 0.1000000000 0.1000000000 0.1000000000 0.1000000000 0.1000000000 0.1000000000 0.1000000000 0.1000000000 0.1000000000 0.1000000000 0.1000000000 0.1000000000 0.1000000000 0.1000000000 0.1000000000 0.1000000000 0.1000000000 0.1000000000 0.1000000000 0.1000000000 0.1000000000 0.1000000000 0.1000000000 0.1000000000 0.1000000000 0.1000000000 0.1000000000 0.1000000000 0.1000000000 0.1000000000 0.1000000000 0.1000000000 0.1000000000 0.1000000000 0.1000000000 0.1000000000 0.1000000000 0.1000000000 0.1000000000 0.1000000000 0.1000000000 0.1000000000 0.1000000000 0.1000000000 0.1000000000 0.1000000000 0.1000000000 0.1000000000 0.1000000000 0.1000000000 0.1000000000 0.1000000000 0.1000000000 0.1000000000 0.1000000000 0.1000000000 0.1000000000 0.1000000000 0.1000000000 0.1000000000 0.1000000000 0.1000000000 0.1000000000 0.1000000000 0.1000000000 0.1000000000 0.1000000000 0.1000000000 0.1000000000 0.1000000000 0.1000000000 0.1000000000 0.1000000000 0.1000000000 0.1000000000 0.1000000000 0.1000000000 0.1000000000 0.1000000000 0.1000000000 0.1000000000 0.1000000000 0.1000000000 0.1000000000 0.1000000000 0.1000000000 0.1000000000 0.1000000000 0.1000000000 0.1000000000 0.1000000000 0.1000000000 0.1000000000 0.1000000000 0.1000000000 0.1000000000 0.1000000000 0.1000000000 0.1000000000 0.1000000000 0.1000000000 0.1000000000 0.1000000000 0.1000000000 0.1000000000 0.1000000000 0.1000000000 0.1000000000 0.1000000000 0.1000000000 0.1000000000 0.1000000000 0.1000000000 0.1000000000 0.1000000000 0.1000000000 0.1000000000 0.1000000000 0.1000000000 0.1000000000 0.1000000000 0.1000000000 0.1000000000 0.1000000000 0.1000000000 0.1000000000 0.1000000000 0.1000000000 0.1000000000 0.1000000000 0.1000000000 0.1000000000 0.1000000000 0.1000000000 0.1000000000 0.1000000000 0.1000000000 0.1000000000 0.1000000000 0.1000000000 0.1000000000 0.1000000000 0.1000000000 0.1000000000 0.1000000000 0.1000000000 0.1000000000 0.1000000000 0.1000000000 0.1000000000 0.1000000000 0.1000000000 0.1000000000 0.1000000000 0.1000000000 0.1000000000 0.1000000000 0.1000000000 0.1000000000 0.1000000000 0.1000000000 0.1000000000 0.1000000000 0.1000000000 0.1000000000 0.1000000000 0.1000000000 0.1000000000 0.1000000000 0.1000000000 0.1000000000 0.1000000000 0.1000000000 0.1000000000 0.1000000000 0.1000000000 0.1000000000 0.1000000000 0.1000000000 0.1000000000 0.1000000000 0.1000000000 0.1000000000 0.1000000000 0.1000000000 0.1000000000 0.1000000000 0.1000000000 0.1000000000 0.1000000000 0.1000000000 0.1000000000 0.1000000000 0.1000000000 0.1000000000 0.1000000000 0.1000000000 0.1000000000 0.1000000000 0.1000000000 0.1000000000 0.1000000000 0.1000000000 0.1000000000 0.1000000000 0.1000000000 0.1000000000 0.1000000000 0.1000000000 0.1000000000 0.1000000000 0.1000000000 0.1000000000 0.1000000000 0.1000000000 0.1000000000 0.1000000000 0.1000000000 0.1000000000 0.1000000000 0.1000000000 0.1000000000 0.1000000000 0.1000000000 0.1000000000 0.1000000000 0.1000000000 0.1000000000 0.1000000000 0.1000000000 0.1000000000 0.1000000000 0.1000000000 0.1000000000 0.1000000000 0.1000000000 0.1000000000 0.1000000000 0.1000000000 0.1000000000 0.1000000000 0.1000000000 0.1000000000 0.1000000000 0.1000000000 0.1000000000 0.1000000000 0.1000000000 0.1000000000 0.1000000000 0.1000000000 0.1000000000 0.1000000000 0.1000000000 0.1000000000 0.1000000000 0.1000000000 0.1000000000 0.1000000000 0.1000000000 0.1000000000 0.1000000000 0.1000000000 0.1000000000 0.1000000000 0.1000000000 0.1000000000 0.1000000000 0.1000000000 0.1000000000 0.1000000000 0.10000000