<?xml version="1.0"?>
<VTKFile type="UnstructuredGrid" version="0.1" byte_order="LittleEndian">
  <UnstructuredGrid>
    <FieldData>
      <DataArray type="Float32" Name="TIME"  NumberOfTuples="1" format="ascii"> 2.4000000000 </DataArray>
      <DataArray type="Int32"   Name="STEP"  NumberOfTuples="1" format="ascii"> 600000 </DataArray>
    </FieldData>
    <Piece NumberOfPoints="11600" NumberOfCells="11600">
      <Points>
        <DataArray type="Float32" NumberOfComponents="3" format="ascii">
 -0.4155461519 -0.7930284406 -0.0000028699 -0.2155902232 -0.7888301090 -0.0000028959 -0.0156342922 -0.7846317772 -0.0000029241 0.1843216361 -0.7804334447 -0.0000029623 0.3842775668 -0.7762351106 -0.0000029973 0.5842334962 -0.7720367766 -0.0000030326 0.7841894255 -0.7678384431 -0.0000030663 0.9841453555 -0.7636401107 -0.0000030964 1.1841012841 -0.7594417791 -0.0000031265 1.3840572144 -0.7552434485 -0.0000031369 1.5840131445 -0.7510451188 -0.0000031391 1.7839690754 -0.7468467887 -0.0000031313 1.9839250074 -0.7426484576 -0.0000031130 2.1838809390 -0.7384501255 -0.0000030826 2.3838368712 -0.7342517931 -0.0000030314 2.5837928031 -0.7300534608 -0.0000029701 2.7837487352 -0.7258551275 -0.0000028992 2.9837046686 -0.7216567930 -0.0000028204 3.1836606046 -0.7174584555 -0.0000027327 3.3836165365 -0.7132601169 -0.0000026361 3.5835724672 -0.7090617786 -0.0000025372 3.7835283981 -0.7048634403 -0.0000024387 3.9834843299 -0.7006651024 -0.0000023437 4.1834402611 -0.6964667643 -0.0000022588 4.3833961929 -0.6922684260 -0.0000021839 4.5833521241 -0.6880700878 -0.0000021163 4.7833080545 -0.6838717498 -0.0000020551 4.9832639859 -0.6796734129 -0.0000019980 5.1832199152 -0.6754750763 -0.0000019450 5.3831758459 -0.6712767402 -0.0000018852 5.5831317759 -0.6670784048 -0.0000018202 5.7830877062 -0.6628800698 -0.0000017477 5.9830436376 -0.6586817355 -0.0000016675 6.1829995712 -0.6544834007 -0.0000015718 6.3829555038 -0.6502850653 -0.0000014725 6.5829114361 -0.6460867298 -0.0000013705 6.7828673683 -0.6418883932 -0.0000012684 6.9828233009 -0.6376900555 -0.0000011692 7.1827792337 -0.6334917181 -0.0000010731 7.3827351664 -0.6292933805 -0.0000009956 7.5826910977 -0.6250950422 -0.0000009265 7.7826470282 -0.6208967040 -0.0000008660 7.9826029596 -0.6166983657 -0.0000008121 8.1825588897 -0.6125000264 -0.0000007629 8.3825148206 -0.6083016864 -0.0000007171 8.5824707507 -0.6041033466 -0.0000006705 8.7824266806 -0.5999050062 -0.0000006221 8.9823826106 -0.5957066662 -0.0000005718 9.1823385384 -0.5915083266 -0.0000005160 9.3822944677 -0.5873099873 -0.0000004637 9.5822503968 -0.5831116492 -0.0000004135 9.7822063263 -0.5789133116 -0.0000003678 9.9821622558 -0.5747149733 -0.0000003286 10.1821181825 -0.5705166342 -0.0000002994 10.3820741113 -0.5663182954 -0.0000002902 10.5820300415 -0.5621199581 -0.0000002915 10.7819859733 -0.5579216209 -0.0000003030 10.9819419062 -0.5537232817 -0.0000003219 11.1818978378 -0.5495249400 -0.0000003481 11.3818537696 -0.5453265977 -0.0000003712 11.5818097005 -0.5411282554 -0.0000003896 11.7817656319 -0.5369299132 -0.0000003998 11.9817215648 -0.5327315713 -0.0000004002 12.1816775031 -0.5285332275 -0.0000003841 12.3816334360 -0.5243348811 -0.0000003499 12.5815893741 -0.5201365343 -0.0000002995 12.7815453072 -0.5159381842 -0.0000002359 12.9815012408 -0.5117398345 -0.0000001659 13.1814571812 -0.5075414811 -0.0000000862 13.3814131168 -0.5033431237 -0.0000000055 13.5813690689 -0.4991447509 0.0000000779 13.8201611580 -0.4850078482 0.0000000000 14.0201595257 -0.4858157330 0.0000000000 14.2201578932 -0.4866236176 0.0000000000 14.4201562635 -0.4874315016 0.0000000000 14.6201546312 -0.4882393866 0.0000000000 14.8201530000 -0.4890472707 0.0000000000 15.0201513688 -0.4898551556 0.0000000000 15.2201497367 -0.4906630400 0.0000000000 15.4201481064 -0.4914709246 0.0000000000 15.6201464743 -0.4922788092 0.0000000000 15.8201448435 -0.4930866938 0.0000000000 16.0201432122 -0.4938945779 0.0000000000 16.2975880093 -0.3656209449 0.0000000204 16.4975193606 -0.3603812097 0.0000000200 16.6974507105 -0.3551414753 0.0000000195 16.8973820627 -0.3499017406 0.0000000190 17.0973134135 -0.3446620063 0.0000000186 17.2972447642 -0.3394222718 0.0000000181 17.4971761162 -0.3341825375 0.0000000177 17.6971074665 -0.3289428032 0.0000000173 17.8970388184 -0.3237030687 0.0000000169 18.0969701694 -0.3184633343 0.0000000165 18.2969015203 -0.3132235999 0.0000000161 18.4968328727 -0.3079838657 0.0000000158 18.6967642229 -0.3027441316 0.0000000155 18.8966955755 -0.2975043969 0.0000000151 19.0966269266 -0.2922646625 0.0000000148 19.2965582776 -0.2870249279 0.0000000144 19.4964896281 -0.2817851932 0.0000000141 -0.3192040494 -0.6177623606 -0.0000028287 -0.1192481208 -0.6135640291 -0.0000028526 0.0807078087 -0.6093656965 -0.0000028796 0.2806637384 -0.6051673635 -0.0000029094 0.4806196677 -0.6009690296 -0.0000029391 0.6805755973 -0.5967706957 -0.0000029677 0.8805315270 -0.5925723624 -0.0000029939 1.0804874575 -0.5883740303 -0.0000030159 1.2804433883 -0.5841756995 -0.0000030279 1.4803993185 -0.5799773694 -0.0000030299 1.6803552488 -0.5757790396 -0.0000030226 1.8803111794 -0.5715807089 -0.0000030053 2.0802671109 -0.5673823773 -0.0000029764 2.2802230427 -0.5631840453 -0.0000029306 2.4801789742 -0.5589857131 -0.0000028721 2.6801349058 -0.5547873802 -0.0000028034 2.8800908376 -0.5505890462 -0.0000027260 3.0800467704 -0.5463907106 -0.0000026405 3.2800027030 -0.5421923722 -0.0000025459 3.4799586342 -0.5379940339 -0.0000024469 3.6799145654 -0.5337956956 -0.0000023469 3.8798704967 -0.5295973575 -0.0000022491 4.0798264285 -0.5253990195 -0.0000021573 4.2797823603 -0.5212006815 -0.0000020762 4.4797382914 -0.5170023433 -0.0000020036 4.6796942224 -0.5128040051 -0.0000019380 4.8796501534 -0.5086056677 -0.0000018780 5.0796060845 -0.5044073308 -0.0000018212 5.2795620156 -0.5002089945 -0.0000017635 5.4795179459 -0.4960106588 -0.0000017015 5.6794738763 -0.4918123235 -0.0000016336 5.8794298074 -0.4876139888 -0.0000015585 6.0793857397 -0.4834156545 -0.0000014745 6.2793416724 -0.4792173193 -0.0000013810 6.4792976046 -0.4750189840 -0.0000012836 6.6792535368 -0.4708206480 -0.0000011851 6.8792094685 -0.4666223107 -0.0000010882 7.0791654011 -0.4624239730 -0.0000009962 7.2791213337 -0.4582256353 -0.0000009154 7.4790772651 -0.4540272973 -0.0000008449 7.6790331961 -0.4498289589 -0.0000007829 7.8789891266 -0.4456306206 -0.0000007281 8.0789450572 -0.4414322816 -0.0000006786 8.2789009877 -0.4372339417 -0.0000006329 8.4788569175 -0.4330356022 -0.0000005877 8.6788128474 -0.4288372619 -0.0000005411 8.8787687768 -0.4246389216 -0.0000004924 9.0787247062 -0.4204405814 -0.0000004415 9.2786806355 -0.4162422420 -0.0000003899 9.4786365648 -0.4120439036 -0.0000003402 9.6785924943 -0.4078455659 -0.0000002942 9.8785484232 -0.4036472278 -0.0000002540 10.0785043517 -0.3994488886 -0.0000002227 10.2784602805 -0.3952505500 -0.0000002073 10.4784162099 -0.3910522126 -0.0000002047 10.6783721408 -0.3868538757 -0.0000002125 10.8783280714 -0.3826555375 -0.0000002290 11.0782840022 -0.3784571969 -0.0000002514 11.2782399335 -0.3742588550 -0.0000002755 11.4781958645 -0.3700605128 -0.0000002961 11.6781517960 -0.3658621709 -0.0000003100 11.8781077276 -0.3616638287 -0.0000003144 12.0780636614 -0.3574654865 -0.0000003062 12.2780195950 -0.3532671415 -0.0000002794 12.4779755291 -0.3490687953 -0.0000002380 12.6779314633 -0.3448704469 -0.0000001810 12.8778873959 -0.3406720975 -0.0000001147 13.0778433307 -0.3364737464 -0.0000000417 13.2777992645 -0.3322753915 0.0000000369 13.4777551974 -0.3280770316 0.0000001175 13.7208616200 -0.3114002414 0.0000000000 13.9208599897 -0.3122081242 0.0000000000 14.1208583583 -0.3130160086 0.0000000000 14.3208567269 -0.3138238935 0.0000000000 14.5208550955 -0.3146317779 0.0000000000 14.7208534642 -0.3154396626 0.0000000000 14.9208518326 -0.3162475472 0.0000000000 15.1208502011 -0.3170554316 0.0000000000 15.3208485701 -0.3178633166 0.0000000000 15.5208469386 -0.3186712007 0.0000000000 15.7208453075 -0.3194790850 0.0000000000 15.9208436735 -0.3202869718 0.0000000000 16.1930845911 -0.1950951847 0.0000000199 16.3930159407 -0.1898554495 0.0000000195 16.5929472921 -0.1846157143 0.0000000189 16.7928786437 -0.1793759798 0.0000000185 16.9928099947 -0.1741362453 0.0000000180 17.1927413458 -0.1688965109 0.0000000176 17.3926726968 -0.1636567766 0.0000000172 17.5926040483 -0.1584170420 0.0000000167 17.7925353998 -0.1531773076 0.0000000163 17.9924667508 -0.1479375733 0.0000000159 18.1923981020 -0.1426978391 0.0000000155 18.3923294532 -0.1374581051 0.0000000152 18.5922608050 -0.1322183704 0.0000000148 18.7921921567 -0.1269786363 0.0000000144 18.9921235078 -0.1217389018 0.0000000141 19.1920548590 -0.1164991673 0.0000000137 19.3919862101 -0.1112594328 0.0000000134 19.5919175602 -0.1060196983 0.0000000130 -0.4228178773 -0.4466946112 -0.0000027659 -0.2228619483 -0.4424962791 -0.0000027853 -0.0229060183 -0.4382979469 -0.0000028057 0.1770499091 -0.4340996141 -0.0000028283 0.3770058392 -0.4299012810 -0.0000028516 0.5769617689 -0.4257029474 -0.0000028743 0.7769176990 -0.4215046140 -0.0000028950 0.9768736300 -0.4173062814 -0.0000029123 1.1768295599 -0.4131079494 -0.0000029227 1.3767854913 -0.4089096191 -0.0000029234 1.5767414218 -0.4047112890 -0.0000029158 1.7766973521 -0.4005129588 -0.0000028987 1.9766532831 -0.3963146278 -0.0000028716 2.1766092130 -0.3921162957 -0.0000028302 2.3765651449 -0.3879179641 -0.0000027743 2.5765210763 -0.3837196317 -0.0000027080 2.7764770077 -0.3795212984 -0.0000026324 2.9764329394 -0.3753229636 -0.0000025487 3.1763888702 -0.3711246263 -0.0000024562 3.3763448017 -0.3669262884 -0.0000023577 3.5763007329 -0.3627279504 -0.0000022568 3.7762566643 -0.3585296124 -0.0000021567 3.9762125960 -0.3543312745 -0.0000020605 4.1761685280 -0.3501329363 -0.0000019725 4.3761244592 -0.3459345982 -0.0000018945 4.5760803904 -0.3417362601 -0.0000018241 4.7760363216 -0.3375379226 -0.0000017599 4.9759922530 -0.3333395855 -0.0000017000 5.1759481841 -0.3291412489 -0.0000016421 5.3759041153 -0.3249429128 -0.0000015817 5.5758600462 -0.3207445771 
[...]
      <PointData Scalars="radius">
        <DataArray type="Float32" Name="radius" format="ascii">
 0.1000000000 0.1000000000 0.1000000000 0.1000000000 0.1000000000 0.1000000000 0.1000000000 0.1000000000 0.1000000000 0.1000000000 0.1000000000 0.1000000000 0.1000000000 0.1000000000 0.1000000000 0.1000000000 0.1000000000 0.1000000000 0.1000000000 0.1000000000 0.1000000000 0.1000000000 0.1000000000 0.1000000000 0.1000000000 0.1000000000 0.1000000000 0.1000000000 0.1000000000 0.1000000000 0.1000000000 0.1000000000 0.1000000000 0.1000000000 0.1000000000 0.1000000000 0.1000000000 0.1000000000 0.1000000000 0.1000000000 0.1000000000 0.1000000000 0.1000000000 0.1000000000 0.1000000000 0.1000000000 0.1000000000 0.1000000000 0.1000000000 0.1000000000 0.1000000000 0.1000000000 0.1000000000 0.1000000000 0.1000000000 0.1000000000 0.1000000000 0.1000000000 0.1000000000 0.1000000000 0.1000000000 0.1000000000 0.1000000000 0.1000000000 0.1000000000 0.1000000000 0.1000000000 0.1000000000 0.1000000000 0.1000000000 0.1000000000 0.1000000000 0.1000000000 0.1000000000 0.1000000000 0.1000000000 0.1000000000 0.1000000000 0.1000000000 0.1000000000 0.1000000000 0.1000000000 0.1000000000 0.1000000000 0.1000000000 0.1000000000 0.1000000000 0.1000000000 0.1000000000 0.1000000000 0.1000000000 0.1000000000 0.1000000000 0.1000000000 0.1000000000 0.1000000000 0.1000000000 0.1000000000 0.1000000000 0.1000000000 0.1000000000 0.1000000000 0.1000000000 0.1000000000 0.1000000000 0.1000000000 0.1000000000 0.1000000000 0.1000000000 0.1000000000 0.1000000000 0.1000000000 0.1000000000 0.1000000000 0.1000000000 0.1000000000 0.1000000000 0.1000000000 0.1000000000 0.1000000000 0.1000000000 0.1000000000 0.1000000000 0.1000000000 0.1000000000 0.1000000000 0.1000000000 0.1000000000 0.1000000000 0.1000000000 0.1000000000 0.1000000000 0.1000000000 0.1000000000 0.1000000000 0.1000000000 0.1000000000 0.1000000000 0.1000000000 0.1000000000 0.1000000000 0.1000000000 0.1000000000 0.1000000000 0.1000000000 0.1000000000 0.1000000000 0.1000000000 0.1000000000 0.1000000000 0.1000000000 0.1000000000 0.1000000000 0.1000000000 0.1000000000 0.1000000000 0.1000000000 0.1000000000 0.1000000000 0.1000000000 0.1000000000 0.1000000000 0.1000000000 0.1000000000 0.1000000000 0.1000000000 0.1000000000 0.1000000000 0.1000000000 0.1000000000 0.1000000000 0.1000000000 0.1000000000 0.1000000000 0.1000000000 0.1000000000 0.1000000000 0.1000000000 0.1000000000 0.1000000000 0.1000000000 0.1000000000 0.1000000000 0.1000000000 0.1000000000 0.1000000000 0.1000000000 0.1000000000 0.1000000000 0.1000000000 0.1000000000 0.1000000000 0.1000000000 0.1000000000 0.1000000000 0.1000000000 0.1000000000 0.1000000000 0.1000000000 0.1000000000 0.1000000000 0.1000000000 0.1000000000 0.1000000000 0.1000000000 0.1000000000 0.1000000000 0.1000000000 0.1000000000 0.1000000000 0.1000000000 0.1000000000 0.1000000000 0.1000000000 0.1000000000 0.1000000000 0.1000000000 0.1000000000 0.1000000000 0.1000000000 0.1000000000 0.1000000000 0.1000000000 0.1000000000 0.1000000000 0.1000000000 0.1000000000 0.1000000000 0.1000000000 0.1000000000 0.1000000000 0.1000000000 0.1000000000 0.1000000000 0.1000000000 0.1000000000 0.1000000000 0.1000000000 0.1000000000 0.1000000000 0.1000000000 0.1000000000 0.1000000000 0.1000000000 0.1000000000 0.1000000000 0.1000000000 0.1000000000 0.1000000000 0.1000000000 0.1000000000 0.1000000000 0.1000000000 0.1000000000 0.1000000000 0.1000000000 0.1000000000 0.1000000000 0.1000000000 0.1000000000 0.1000000000 0.1000000000 0.1000000000 0.1000000000 0.1000000000 0.1000000000 0.1000000000 0.1000000000 0.1000000000 0.1000000000 0.1000000000 0.1000000000 0.1000000000 0.1000000000 0.1000000000 0.1000000000 0.1000000000 0.1000000000 0.1000000000 0.1000000000 0.1000000000 0.1000000000 0.1000000000 0.1000000000 0.1000000000 0.1000000000 0.1000000000 0.1000000000 0.1000000000 0.1000000000 0.1000000000 0.1000000000 0.1000000000 0.1000000000 0.1000000000 0.1000000000 0.1000000000 0.1000000000 0.1000000000 0.1000000000 0.1000000000 0.1000000000 0.1000000000 0.1000000000 0.1000000000 0.1000000000 0.1000000000 0.1000000000 0.1000000000 0.1000000000 0.1000000000 0.1000000000 0.1000000000 0.1000000000 0.1000000000 0.1000000000 0.1000000000 0.1000000000 0.1000000000 0.1000000000 0.1000000000 0.1000000000 0.1000000000 0.1000000000 0.1000000000 0.1000000000 0.1000000000 0.1000000000 0.1000000000 0.1000000000 0.1000000000 0.1000000000 0.1000000000 0.1000000000 0.1000000000 0.1000000000 0.1000000000 0.1000000000 0.1000000000 0.1000000000 0.1000000000 0.1000000000 0.1000000000 0.1000000000 0.1000000000 0.1000000000 0.1000000000 0.1000000000 0.1000000000 0.1000000000 0.1000000000 0.1000000000 0.1000000000 0.1000000000 0.1000000000 0.1000000000 0.1000000000 0.1000000000 0.1000000000 0.1000000000 0.1000000000 0.1000000000 0.1000000000 0.1000000000 0.1000000000 0.1000000000 0.1000000000 0.1000000000 0.1000000000 0.1000000000 0.1000000000 0.1000000000 0.1000000000 0.1000000000 0.1000000000 0.1000000000 0.1000000000 0.1000000000 0.1000000000 0.1000000000 0.1000000000 0.1000000000 0.1000000000 0.1000000000 0.1000000000 0.1000000000 0.1000000000 0.1000000000 0.1000000000 0.1000000000 0.1000000000 0.1000000000 0.1000000000 0.1000000000 0.1000000000 0.1000000000 0.1000000000 0.1000000000 0.1000000000 0.1000000000 0.1000000000 0.1000000000 0.1000000000 0.1000000000 0.1000000000 0.1000000000 0.1000000000 0.1000000000 0.1000000000 0.1000000000 0.1000000000 0.1000000000 0.1000000000 0.1000000000 0.1000000000 0.1000000000 0.1000000000 0.1000000000 0.1000000000 0.1000000000 0.1000000000 0.1000000000 0.1000000000 0.1000000000 0.1000000000 0.1000000000 0.1000000000 0.1000000000 0.1000000000 0.1000000000 0.1000000000 0.1000000000 0.1000000000 0.1000000000 0.1000000000 0.1000000000 0.1000000000 0.1000000000 0.1000000000 0.1000000000 0.1000000000 0.1000000000 0.1000000000 0.1000000000 0.1000000000 0.1000000000 0.1000000000 0.1000000000 0.1000000000 0.1000000000 0.1000000000 0.1000000000 0.1000000000 0.1000000000 0.1000000000 0.1000000000 0.1000000000 0.1000000000 0.1000000000 0.1000000000 0.1000000000 0.1000000000 0.1000000000 0.1000000000 0.1000000000 0.1000000000 0.1000000000 0.1000000000 0.1000000000 0.1000000000 0.1000000000 0.1000000000 0.1000000000 0.1000000000 0.1000000000 0.1000000000 0.1000000000 0.1000000000 0.1000000000 0.1000000000 0.1000000000 0.1000000000 0.1000000000 0.1000000000 0.1000000000 0.1000000000 0.1000000000 0.1000000000 0.1000000000 0.1000000000 0.1000000000 0.1000000000 0.1000000000 0.1000000000 0.1000000000 0.1000000000 0.1000000000 0.1000000000 0.1000000000 0.1000000000 0.1000000000 0.1000000000 0.1000000000 0.1000000000 0.1000000000 0.1000000000 0.1000000000 0.1000000000 0.1000000000 0.1000000000 0.1000000000 0.1000000000 0.1000000000 0.1000000000 0.1000000000 0.1000000000 0.1000000000 0.1000000000 0.1000000000 0.1000000000 0.1000000000 0.1000000000 0.1000000000 0.1000000000 0.1000000000 0.1000000000 0.1000000000 0.1000000000 0.1000000000 0.1000000000 0.1000000000 0.1000000000 0.1000000000 0.1000000000 0.1000000000 0.1000000000 0.1000000000 0.1000000000 0.1000000000 0.1000000000 0.1000000000 0.1000000000 0.1000000000 0.1000000000 0.1000000000 0.1000000000 0.1000000000 0.1000000000 0.1000000000 0.1000000000 0.1000000000 0.1000000000 0.1000000000 0.1000000000 0.1000000000 0.1000000000 0.1000000000 0.1000000000 0.1000000000 0.1000000000 0.1000000000 0.1000000000 0.1000000000 0.1000000000 0.1000000000 0.1000000000 0.1000000000 0.1000000000 0.1000000000 0.1000000000 0.1000000000 0.1000000000 0.1000000000 0.1000000000 0.1000000000 0.1000000000 0.1000000000 0.1000000000 0.1000000000 0.1000000000 0.1000000000 0.1000000000 0.1000000000 0.1000000000 0.1000000000 0.1000000000 0.1000000000 0.1000000000 0.1000000000 0.1000000000 0.1000000000 0.1000000000 0.1000000000 0.1000000000 0.1000000000 0.1000000000 0.1000000000 0.1000000000 0.1000000000 0.1000000000 0.1000000000 0.1000000000 0.1000000000 0.1000000000 0.1000000000 0.1000000000 0.1000000000 0.1000000000 0.1000000000 0.1000000000 0.1000000000 0.1000000000 0.1000000000 0.1000000000 0.1000000000 0.1000000000 0.1000000000 0.1000000000 0.1000000000 0.1000000000 0.1000000000 0.1000000000 0.1000000000 0.1000000000 0.1000000000 0.1000000000 0.1000000000 0.1000000000 0.1000000000 0.1000000000 0.1000000000 0.1000000000 0.1000000000 0.1000000000 0.1000000000 0.1000000000 0.1000000000 0.1000000000 0.1000000000 0.1000000000 0.1000000000 0.1000000000 0.1000000000 0.1000000000 0.1000000000 0.1000000000 0.1000000000 0.1000000000 0.1000000000 0.1000000000 0.1000000000 0.1000000000 0.1000000000 0.1000000000 0.1000000000 0.1000000000 0.1000000000 0.1000000000 0.1000000000 0.1000000000 0.1000000000 0.1000000000 0.1000000000 0.1000000000 0.1000000000 0.1000000000 0.1000000000 0.1000000000 0.1000000000 0.1000000000 0.1000000000 0.1000000000 0.1000000000 0.1000000000 0.1000000000 0.1000000000 0.1000000000 0.1000000000 0.1000000000 0.1000000000 0.1000000000 0.1000000000 0.1000000000 0.1000000000 0.1000000000 0.1000000000 0.1000000000 0.1000000000 0.1000000000 0.1000000000 0.1000000000 0.1000000000 0.1000000000 0.1000000000 0.1000000000 0.1000000000 0.1000000000 0.1000000000 0.1000000000 0.1000000000 0.1000000000 0.1000000000 0.1000000000 0.1000000000 0.1000000000 0.1000000000 0.1000000000 0.1000000000 0.1000000000 0.1000000000 0.1000000000 0.1000000000 0.1000000000 0.1000000000 0.1000000000 0.1000000000 0.1000000000 0.1000000000 0.1000000000 0.1000000000 0.1000000000 0.1000000000 0.1000000000 0.1000000000 0.1000000000 0.1000000000 0.1000000000 0.1000000000 0.1000000000 0.1000000000 0.1000000000 0.1000000000 0.1000000000 0.1000000000 0.1000000000 0.1000000000 0.1000000000 0.1000000000 0.1000000000 0.1000000000 0.1000000000 0.1000000000 0.1000000000 0.1000000000 0.1000000000 0.1000000000 0.1000000000 0.1000000000 0.1000000000 0.1000000000 0.1000000000 0.1000000000 0.1000000000 0.1000000000 0.1000000000 0.1000000000 0.1000000000 0.1000000000 0.1000000000 0.1000000000 0.1000000000 0.1000000000 0.1000000000 0.1000000000 0.1000000000 0.1000000000 0.1000000000 0.1000000000 0.1000000000 0.1000000000 0.1000000000 0.1000000000 0.1000000000 0.1000000000 0.1000000000 0.1000000000 0.1000000000 0.1000000000 0.1000000000 0.1000000000 0.1000000000 0.1000000000 0.1000000000 0.1000000000 0.1000000000 0.1000000000 0.1000000000 0.1000000000 0.1000000000 0.1000000000 0.1000000000 0.1000000000 0.1000000000 0.1000000000 0.1000000000 0.1000000000 0.1000000000 0.1000000000 0.1000000000 0.1000000000 0.1000000000 0.1000000000 0.1000000000 0.1000000000 0.1000000000 0.1000000000 0.1000000000 0.1000000000 0.1000000000 0.1000000000 0.1000000000 0.1000000000 0.1000000000 0.1000000000 0.1000000000 0.1000000000 0.1000000000 0.1000000000 0.1000000000 0.1000000000 0.1000000000 0.1000000000 0.1000000000 0.1000000000 0.1000000000 0.1000000000 0.1000000000 0.1000000000 0.1000000000 0.1000000000 0.1000000000 0.1000000000 0.1000000000 0.1000000000 0.1000000000 0.1000000000 0.1000000000 0.1000000000 0.1000000000 0.1000000000 0.1000000000 0.1000000000 0.1000000000 0.1000000000 0.1000000000 0.1000000000 0.1000000000 0.1000000000 0.1000000000 0.1000000000 0.1000000000 0.1000000000 0.1000000000 0.1000000000 0.1000000000 0.1000000000 0.1000000000 0.1000000000 0.1000000000 0.1000000000 0.1000000000 0.1000000000 0.1000000000 0.1000000000 0.1000000000 0.1000000000 0.1000000000 0.1000000000 0.1000000000 0.1000000000 0.1000000000 0.1000000000 0.1000000000 0.1000000000 0.1000000000 0.1000000000 0.1000000000 0.1000000000 0.1000000000 0.1000000000 0.1000000000 0.1000000000 0.1000000000 0.1000000000 0.1000000000 0.1000000000 0.1000000000 0.1000000000 0.1000000000 0.1000000000 0.1000000000 0.1000000000 0.1000000000 0.1000000000 0.1000000000 0.1000000000 0.1000000000 0.1000000000 0.1000000000 0.1000000000 0.1000000000 0.1000000000 0.1000000000 0.1000000000 0.1000000000 0.1000000000 0.1000000000 0.1000000000 0.1000000000 0.1000000000 0.1000000000 0.1000000000 0.1000000000 0.1000000000 0.1000000000 0.1000000000 0.1000000000 0.1000000000 0.1000000000 0.1000000000 0.1000000000 0.1000000000 0.1000000000 0.1000000000 0.1000000000 0.1000000000 0.1000000000 0.1000000000 0.1000000000 0.1000000000 0.1000000000 0.1000000000 0.1000000000 0.1000000000 0.1000000000 0.1000000000 0.1000000000 0.1000000000 0.1000000000 0.1000000000 0.1000000000 0.1000000000 0.1000000000 0.1000000000 0.1000000000 0.1000000000 0.1000000000 0.1000000000 0.1000000000 0.1000000000 0.1000000000 0.1000000000 0.1000000000 0.1000000000 0.1000000000 0.1000000000 0.1000000000 0.1000000000 0.1000000000 0.1000000000 0.1000000000 0.1000000000 0.1000000000 0.1000000000 0.1000000000 0.1000000000 0.1000000000 0.1000000000 0.1000000000 0.1000000000 0.1000000000 0.1000000000 0.1000000000 0.1000000000 0.1000000000 0.1000000000 0.1000000000 0.1000000000 0.1000000000 0.1000000000 0.1000000000 0.1000000000 0.1000000000 0.1000000000 0.1000000000 0.1000000000 0.1000000000 0.1000000000 0.1000000000 0.1000000000 0.1000000000 0.1000000000 0.1000000000 0.1000000000 0.1000000000 0.1000000000 0.1000000000 0.1000000000 0.1000000000 0.1000000000 0.1000000000 0.1000000000 0.1000000000 0.1000000000 0.1000000000 0.1000000000 0.1000000000 0.1000000000 0.1000000000 0.1000000000 0.1000000000 0.1000000000 0.1000000000 0.1000000000 0.1000000000 0.1000000000 0.1000000000 0.1000000000 0.1000000000 0.1000000000 0.1000000000 0.1000000000 0.1000000000 0.1000000000 0.1000000000 0.1000000000 0.1000000000 0.1000000000 0.1000000000 0.1000000000 0.1000000000 0.1000000000 0.1000000000 0.1000000000 0.1000000000 0.1000000000 0.1000000000 0.1000000000 0.1000000000 0.1000000000 0.1000000000 0.1000000000 0.1000000000 0.1000000000 0.1000000000 0.1000000000 0.1000000000 0.1000000000 0.1000000000 0.1000000000 0.1000000000 0.1000000000 0.1000000000 0.1000000000 0.1000000000 0.1000000000 0.1000000000 0.1000000000 0.1000000000 0.1000000000 0.1000000000 0.1000000000 0.1000000000 0.1000000000 0.1000000000 0.1000000000 0.1000000000 0.1000000000 0.1000000000 0.1000000000 0.1000000000 0.1000000000 0.1000000000 0.1000000000 0.1000000000 0.1000000000 0.1000000000 0.1000000000 0.1000000000 0.1000000000 0.1000000000 0.1000000000 0.1000000000 0.1000000000 0.1000000000 0.1000000000 0.1000000000 0.1000000000 0.1000000000 0.1000000000 0.1000000000 0.1000000000 0.1000000000 0.1000000000 0.1000000000 0.1000000000 0.1000000000 0.1000000000 0.1000000000 0.1000000000 0.1000000000 0.1000000000 0.1000000000 0.1000000000 0.1000000000 0.1000000000 0.1000000000 0.1000000000 0.1000000000 0.1000000000 0.1000000000 0.1000000000 0.1000000000 0.1000000000 0.1000000000 0.1000000000 0.1000000000 0.1000000000 0.1000000000 0.1000000000 0.1000000000 0.1000000000 0.1000000000 0.1000000000 0.1000000000 0.1000000000 0.1000000000 0.1000000000 0.1000000000 0.1000000000 0.1000000000 0.1000000000 0.1000000000 0.1000000000 0.1000000000 0.1000000000 0.1000000000 0.1000000000 0.1000000000 0.1000000000 0.1000000000 0.1000000000 0.1000000000 0.1000000000 0.1000000000 0.1000000000 0.1000000000 0.1000000000 0.1000000000 0.1000000000 0.1000000000 0.1000000000 0.1000000000 0.1000000000 0.1000000000 0.1000000000 0.1000000000 0.1000000000 0.1000000000 0.1000000000 0.1000000000 0.1000000000 0.1000000000 0.1000000000 0.1000000000 0.1000000000 0.1000000000 0.1000000000 0.1000000000 0.1000000000 0.1000000000 0.1000000000 0.1000000000 0.1000000000 0.1000000000 0.1000000000 0.1000000000 0.1000000000 0.1000000000 0.1000000000 0.1000000000 0.1000000000 0.1000000000 0.1000000000 0.1000000000 0.1000000000 0.1000000000 0.1000000000 0.1000000000 0.1000000000 0.1000000000 0.1000000000 0.1000000000 0.1000000000 0.1000000000 0.1000000000 0.1000000000 0.1000000000 0.1000000000 0.1000000000 0.1000000000 0.1000000000 0.1000000000 0.1000000000 0.1000000000 0.1000000000 0.1000000000 0.1000000000 0.1000000000 0.1000000000 0.1000000000 0.1000000000 0.1000000000 0.1000000000 0.1000000000 0.1000000000 0.1000000000 0.1000000000 0.1000000000 0.1000000000 0.1000000000 0.1000000000 0.1000000000 0.1000000000 0.1000000000 0.1000000000 0.1000000000 0.1000000000 0.1000000000 0.1000000000 0.1000000000 0.1000000000 0.1000000000 0.1000000000 0.1000000000 0.1000000000 0.1000000000 0.1000000000 0.1000000000 0.1000000000 0.1000000000 0.1000000000 0.1000000000 0.1000000000 0.1000000000 0.1000000000 0.1000000000 0.1000000000 0.1000000000 0.1000000000 0.1000000000 0.1000000000 0.1000000000 0.1000000000 0.1000000000 0.1000000000 0.1000000000 0.1000000000 0.1000000000 0.1000000000 0.1000000000 0.1000000000 0.1000000000 0.1000000000 0.1000000000 0.1000000000 0.1000000000 0.1000000000 0.1000000000 0.1000000000 0.1000000000 0.1000000000 0.1000000000 0.1000000000 0.1000000000 0.1000000000 0.1000000000 0.1000000000 0.1000000000 0.1000000000 0.1000000000 0.1000000000 0.1000000000 0.1000000000 0.1000000000 0.1000000000 0.1000000000 0.1000000000 0.1000000000 0.1000000000 0.1000000000 0.1000000000 0.1000000000 0.1000000000 0.1000000000 0.1000000000 0.1000000000 0.1000000000 0.1000000000 0.1000000000 0.1000000000 0.1000000000 0.1000000000 0.1000000000 0.1000000000 0.1000000000 0.1000000000 0.1000000000 0.1000000000 0.1000000000 0.1000000000 0.1000000000 0.1000000000 0.1000000000 0.1000000000 0.1000000000 0.1000000000 0.1000000000 0.1000000000 0.1000000000 0.1000000000 0.1000000000 0.1000000000 0.1000000000 0.1000000000 0.1000000000 0.1000000000 0.1000000000 0.1000000000 0.1000000000 0.1000000000 0.1000000000 0.1000000000 0.1000000000 0.1000000000 0.1000000000 0.1000000000 0.1000000000 0.1000000000 0.1000000000 0.1000000000 0.1000000000 0.1000000000 0.1000000000 0.1000000000 0.1000000000 0.1000000000 0.1000000000 0.1000000000 0.1000000000 0.1000000000 0.1000000000 0.1000000000 0.1000000000 0.1000000000 0.1000000000 0.1000000000 0.1000000000 0.1000000000 0.1000000000 0.1000000000 0.1000000000 0.1000000000 0.1000000000 0.1000000000 0.1000000000 0.1000000000 0.1000000000 0.1000000000 0.1000000000 0.1000000000 0.1000000000 0.1000000000 0.1000000000 0.1000000000 0.1000000000 0.1000000000 0.1000000000 0.1000000000 0.1000000000 0.1000000000 0.1000000000 0.1000000000 0.1000000000 0.1000000000 0.1000000000 0.1000000000 0.1000000000 0.1000000000 0.1000000000 0.1000000000 0.1000000000 0.1000000000 0.1000000000 0.1000000000 0.1000000000 0.1000000000 0.1000000000 0.1000000000 0.1000000000 0.1000000000 0.1000000000 0.1000000000 0.1000000000 0.1000000000 0.1000000000 0.1000000000 0.1000000000 0.1000000000 0.1000000000 0.1000000000 0.1000000000 0.1000000000 0.1000000000 0.1000000000 0.1000000000 0.1000000000 0.1000000000 0.1000000000 0.1000000000 0.1000000000 0.1000000000 0.1000000000 0.1000000000 0.1000000000 0.1000000000 0.1000000000 0.1000000000 0.1000000000 0.1000000000 0.1000000000 0.1000000000 0.1000000000 0.1000000000 0.1000000000 0.1000000000 0.1000000000 0.1000000000 0.1000000000 0.1000000000 0.1000000000 0.1000000000 0.1000000000 0.1000000000 0.1000000000 0.1000000000 0.1000000000 0.1000000000 0.1000000000 0.1000000000 0.1000000000 0.1000000000 0.1000000000 0.1000000000 0.1000000000 0.1000000000 0.1000000000 0.1000000000 0.1000000000 0.1000000000 0.1000000000 0.1000000000 0.1000000000 0.1000000000 0.1000000000 0.1000000000 0.1000000000 0.1000000000 0.1000000000 0.1000000000 0.1000000000 0.1000000000 0.1000000000 0.1000000000 0.1000000000 0.1000000000 0.1000000000 0.1000000000 0.1000000000 0.1000000000 0.1000000000 0.1000000000 0.1000000000 0.1000000000 0.1000000000 0.1000000000 0.1000000000 0.1000000000 0.1000000000 0.1000000000 0.1000000000 0.1000000000 0.1000000000 0.1000000000 0.1000000000 0.1000000000 0.1000000000 0.1000000000 0.1000000000 0.1000000000 0.1000000000 0.1000000000 0.1000000000 0.1000000000 0.1000000000 0.1000000000 0.1000000000 0.1000000000 0.1000000000 0.1000000000 0.1000000000 0.1000000000 0.1000000000 0.1000000000 0.1000000000 0.1000000000 0.1000000000 0.1000000000 0.1000000000 0.1000000000 0.1000000000 0.1000000000 0.1000000000 0.1000000000 0.1000000000 0.1000000000 0.1000000000 0.1000000000 0.1000000000 0.1000000000 0.10000000