<?xml version="1.0"?>
<VTKFile type="UnstructuredGrid" version="0.1" byte_order="LittleEndian">
  <UnstructuredGrid>
    <FieldData>
      <DataArray type="Float32" Name="TIME"  NumberOfTuples="1" format="ascii"> 0.5000000000 </DataArray>
      <DataArray type="Int32"   Name="STEP"  NumberOfTuples="1" format="ascii"> 125000 </DataArray>
    </FieldData>
    <Piece NumberOfPoints="11600" NumberOfCells="11600">
      <Points>
        <DataArray type="Float32" NumberOfComponents="3" format="ascii">
 -0.0793843667 -0.1840463579 0.0000000000 0.1206119631 -0.1828344385 0.0000000000 0.3206082991 -0.1816225233 0.0000000000 0.5206047262 -0.1804106060 0.0000000000 0.7206010864 -0.1791986677 0.0000000000 0.9205974582 -0.1779867315 0.0000000000 1.1205938309 -0.1767747799 0.0000000000 1.3205901955 -0.1755628252 0.0000000000 1.5205866592 -0.1743508484 0.0000000000 1.7205829869 -0.1731388041 0.0000000000 1.9205793011 -0.1719267351 0.0000000000 2.1205755999 -0.1707146494 0.0000000000 2.3205718877 -0.1695025479 0.0000000000 2.5205681328 -0.1682904285 0.0000000000 2.7205644069 -0.1670782843 0.0000000000 2.9205606707 -0.1658661198 0.0000000000 3.1205569252 -0.1646539350 0.0000000000 3.3205531706 -0.1634417252 0.0000000000 3.5205493201 -0.1622295091 0.0000000000 3.7205455238 -0.1610172918 0.0000000000 3.9205417056 -0.1598050709 0.0000000000 4.1205378684 -0.1585928427 0.0000000000 4.3205340122 -0.1573806042 0.0000000000 4.5205299677 -0.1561684009 0.0000000000 4.7205260526 -0.1549562239 0.0000000000 4.9205221049 -0.1537440832 0.0000000000 5.1205181426 -0.1525319935 0.0000000000 5.3205141862 -0.1513199310 0.0000000000 5.5205100176 -0.1501079084 0.0000000000 5.7205060564 -0.1488959135 0.0000000000 5.9205020799 -0.1476839291 0.0000000000 6.1204981000 -0.1464719681 0.0000000000 6.3204941268 -0.1452600163 0.0000000000 6.5204899263 -0.1440481103 0.0000000000 6.7204859432 -0.1428362279 0.0000000000 6.9204819433 -0.1416243779 0.0000000000 7.1204779420 -0.1404125700 0.0000000000 7.3204739557 -0.1392007836 0.0000000000 7.5204697458 -0.1379890308 0.0000000000 7.7204657587 -0.1367773147 0.0000000000 7.9204617579 -0.1355656168 0.0000000000 8.1204577583 -0.1343539433 0.0000000000 8.3204537724 -0.1331422865 0.0000000000 8.5204495673 -0.1319306831 0.0000000000 8.7204455939 -0.1307191122 0.0000000000 8.9204416161 -0.1295075522 0.0000000000 9.1204376452 -0.1282960137 0.0000000000 9.3204336978 -0.1270844945 0.0000000000 9.5204295806 -0.1258730052 0.0000000000 9.7204256767 -0.1246615313 0.0000000000 9.9204217818 -0.1234500370 0.0000000000 10.1204178968 -0.1222385374 0.0000000000 10.3204140212 -0.1210270374 0.0000000000 10.5204099945 -0.1198155565 0.0000000000 10.7204061167 -0.1186041005 0.0000000000 10.9204022273 -0.1173926561 0.0000000000 11.1203983310 -0.1161812274 0.0000000000 11.3203944322 -0.1149698066 0.0000000000 11.5203903433 -0.1137584338 0.0000000000 11.7203864228 -0.1125471270 0.0000000000 11.9203825061 -0.1113358966 0.0000000000 12.1203786197 -0.1101247380 0.0000000000 12.3203747793 -0.1089136060 0.0000000000 12.5203708623 -0.1077024677 0.0000000000 12.7203670763 -0.1064913461 0.0000000000 12.9203632191 -0.1052802337 0.0000000000 13.1203594570 -0.1040691334 0.0000000000 13.3203557071 -0.1028580597 0.0000000000 13.5203519192 -0.1016470506 0.0000000000 13.7203482107 -0.1004361001 0.0000000000 13.9203445057 -0.0992251961 0.0000000000 14.1229473927 -0.0983482857 0.0000000000 14.3229473915 -0.0983584474 0.0000000000 14.5229473893 -0.0983686089 0.0000000000 14.7229473892 -0.0983787704 0.0000000000 14.9229473863 -0.0983889338 0.0000000000 15.1229473850 -0.0983990974 0.0000000000 15.3229473839 -0.0984092625 0.0000000000 15.5229473812 -0.0984194280 0.0000000000 15.7229473808 -0.0984295945 0.0000000000 15.9229473786 -0.0984397621 0.0000000000 16.1229473781 -0.0984499304 0.0000000000 16.3229473778 -0.0984600990 0.0000000000 16.5387495960 -0.0759703855 -0.0000000003 16.7387469953 -0.0749445333 -0.0000000003 16.9387444459 -0.0739186261 -0.0000000003 17.1387418316 -0.0728927816 -0.0000000003 17.3387392462 -0.0718669641 -0.0000000003 17.5387366649 -0.0708411181 -0.0000000003 17.7387340685 -0.0698152453 -0.0000000004 17.9387314901 -0.0687893605 -0.0000000005 18.1387288582 -0.0677634715 -0.0000000005 18.3387262097 -0.0667375967 -0.0000000005 18.5387235713 -0.0657117245 -0.0000000005 18.7387209550 -0.0646858349 -0.0000000005 18.9387185991 -0.0636598176 -0.0000000005 19.1387160133 -0.0626337026 -0.0000000005 19.3387134217 -0.0616075718 -0.0000000004 19.5387108174 -0.0605814252 -0.0000000005 19.7387081947 -0.0595553073 -0.0000000005 0.0195642475 -0.0102385012 0.0000000000 0.2195605842 -0.0090265789 0.0000000000 0.4195569417 -0.0078146656 0.0000000000 0.6195533098 -0.0066027334 0.0000000000 0.8195496755 -0.0053907984 0.0000000000 1.0195460437 -0.0041788567 0.0000000000 1.2195424158 -0.0029669027 0.0000000000 1.4195387902 -0.0017549407 0.0000000000 1.6195351380 -0.0005429190 0.0000000000 1.8195314523 0.0006691377 0.0000000000 2.0195277471 0.0018812177 0.0000000000 2.2195240249 0.0030933153 0.0000000000 2.4195202853 0.0043054297 0.0000000000 2.6195165362 0.0055175625 0.0000000000 2.8195127855 0.0067297179 0.0000000000 3.0195090273 0.0079418939 0.0000000000 3.2195052551 0.0091540923 0.0000000000 3.4195014577 0.0103663135 0.0000000000 3.6194976440 0.0115785327 0.0000000000 3.8194938243 0.0127907524 0.0000000000 4.0194899882 0.0140029797 0.0000000000 4.2194861258 0.0152152184 0.0000000000 4.4194822192 0.0164274572 0.0000000000 4.6194782894 0.0176396456 0.0000000000 4.8194743640 0.0188518070 0.0000000000 5.0194704269 0.0200639272 0.0000000000 5.2194664679 0.0212760056 0.0000000000 5.4194624670 0.0224880600 0.0000000000 5.6194584599 0.0237000632 0.0000000000 5.8194544797 0.0249120514 0.0000000000 6.0194505039 0.0261240242 0.0000000000 6.2194465161 0.0273359825 0.0000000000 6.4194424908 0.0285479226 0.0000000000 6.6194384604 0.0297598133 0.0000000000 6.8194344632 0.0309716758 0.0000000000 7.0194304723 0.0321835051 0.0000000000 7.2194264717 0.0333953042 0.0000000000 7.4194224337 0.0346070818 0.0000000000 7.6194183958 0.0358188064 0.0000000000 7.8194143933 0.0370305135 0.0000000000 8.0194103985 0.0382421992 0.0000000000 8.2194063982 0.0394538647 0.0000000000 8.4194023677 0.0406655034 0.0000000000 8.6193983410 0.0418770797 0.0000000000 8.8193943559 0.0430886425 0.0000000000 9.0193903869 0.0443001916 0.0000000000 9.2193864204 0.0455117213 0.0000000000 9.4193824369 0.0467232294 0.0000000000 9.6193784692 0.0479346978 0.0000000000 9.8193745462 0.0491461771 0.0000000000 10.0193706462 0.0503576704 0.0000000000 10.2193667519 0.0515691709 0.0000000000 10.4193628393 0.0527806663 0.0000000000 10.6193589274 0.0539921293 0.0000000000 10.8193550389 0.0552035779 0.0000000000 11.0193511522 0.0564150159 0.0000000000 11.2193472528 0.0576264441 0.0000000000 11.4193433214 0.0588378533 0.0000000000 11.6193393902 0.0600491864 0.0000000000 11.8193354995 0.0612604521 0.0000000000 12.0193316292 0.0624716436 0.0000000000 12.2193277774 0.0636827856 0.0000000000 12.4193239314 0.0648939204 0.0000000000 12.6193201055 0.0661050392 0.0000000000 12.8193162982 0.0673161591 0.0000000000 13.0193125146 0.0685272541 0.0000000000 13.2193087632 0.0697383301 0.0000000000 13.4193050359 0.0709493785 0.0000000000 13.6193013276 0.0721603581 0.0000000000 13.8192976438 0.0733712883 0.0000000000 14.0229561913 0.0748618725 0.0000000000 14.2229561918 0.0748517128 0.0000000000 14.4229561912 0.0748415517 0.0000000000 14.6229561903 0.0748313897 0.0000000000 14.8229561892 0.0748212274 0.0000000000 15.0229561881 0.0748110637 0.0000000000 15.2229561870 0.0748008992 0.0000000000 15.4229561860 0.0747907343 0.0000000000 15.6229561853 0.0747805677 0.0000000000 15.8229561846 0.0747704012 0.0000000000 16.0229561842 0.0747602335 0.0000000000 16.2229561814 0.0747500626 0.0000000000 16.4378625398 0.0967195167 -0.0000000003 16.6378599106 0.0977453509 -0.0000000002 16.8378573069 0.0987712193 -0.0000000002 17.0378547196 0.0997970991 -0.0000000002 17.2378521341 0.1008229273 -0.0000000002 17.4378495454 0.1018487560 -0.0000000002 17.6378469497 0.1028746254 -0.0000000002 17.8378443441 0.1039005163 -0.0000000003 18.0378417238 0.1049264026 -0.0000000003 18.2378390882 0.1059522780 -0.0000000003 18.4378364471 0.1069781457 -0.0000000004 18.6378338211 0.1080040282 -0.0000000003 18.8378312304 0.1090299558 -0.0000000003 19.0378286564 0.1100560384 -0.0000000003 19.2378260647 0.1110821618 -0.0000000003 19.4378234681 0.1121082953 -0.0000000003 19.6378208681 0.1131344206 -0.0000000003 19.8378182587 0.1141605222 -0.0000000003 -0.0814834855 0.1623574289 0.0000000000 0.1185128444 0.1635693668 0.0000000000 0.3185091780 0.1647812965 0.0000000000 0.5185055322 0.1659932154 0.0000000000 0.7185018825 0.1672051506 0.0000000000 0.9184982405 0.1684170864 0.0000000000 1.1184946017 0.1696290325 0.0000000000 1.3184909565 0.1708409950 0.0000000000 1.5184872978 0.1720529814 0.0000000000 1.7184836113 0.1732650261 0.0000000000 1.9184799046 0.1744770944 0.0000000000 2.1184761843 0.1756891877 0.0000000000 2.3184724528 0.1769012976 0.0000000000 2.5184686726 0.1781134231 0.0000000000 2.7184649233 0.1793255704 0.0000000000 2.9184611623 0.1805377385 0.0000000000 3.1184573917 0.1817499272 0.0000000000 3.3184536155 0.1829621399 0.0000000000 3.5184497671 0.1841743575 0.0000000000 3.7184459656 0.1853865807 0.0000000000 3.9184421429 0.1865988075 0.0000000000 4.1184383042 0.1878110461 0.0000000000 4.3184344583 0.1890232889 0.0000000000 4.5184304954 0.1902354999 0.0000000000 4.7184266147 0.1914476810 0.0000000000 4.9184227110 0.1926598256 0.0000000000 5.1184187931 0.1938719294 0.0000000000 5.3184148728 0.1950840013 0.0000000000 5.5184108087 0.1962960285 0.0000000000 5.7184068702 0.1975080282 0.0000000000 5.9184029162 0.1987200099 0.0000000000 6.1183989588 0.1999319781 0.0000000000 6.3183950100 0.2011439282 0.0000000000 6.5183909149 0.2023558426 0.0000000000 6.7183869616 0.2035677198 0.0000000000 6.9183829948 0.2047795667 0.0000000000 7.1183790259 0.2059913820 0.0000000000 7.31837506
[...]
      <PointData Scalars="radius">
        <DataArray type="Float32" Name="radius" format="ascii">
 0.1000000000 0.1000000000 0.1000000000 0.1000000000 0.1000000000 0.1000000000 0.1000000000 0.1000000000 0.1000000000 0.1000000000 0.1000000000 0.1000000000 0.1000000000 0.1000000000 0.1000000000 0.1000000000 0.1000000000 0.1000000000 0.1000000000 0.1000000000 0.1000000000 0.1000000000 0.1000000000 0.1000000000 0.1000000000 0.1000000000 0.1000000000 0.1000000000 0.1000000000 0.1000000000 0.1000000000 0.1000000000 0.1000000000 0.1000000000 0.1000000000 0.1000000000 0.1000000000 0.1000000000 0.1000000000 0.1000000000 0.1000000000 0.1000000000 0.1000000000 0.1000000000 0.1000000000 0.1000000000 0.1000000000 0.1000000000 0.1000000000 0.1000000000 0.1000000000 0.1000000000 0.1000000000 0.1000000000 0.1000000000 0.1000000000 0.1000000000 0.1000000000 0.1000000000 0.1000000000 0.1000000000 0.1000000000 0.1000000000 0.1000000000 0.1000000000 0.1000000000 0.1000000000 0.1000000000 0.1000000000 0.1000000000 0.1000000000 0.1000000000 0.1000000000 0.1000000000 0.1000000000 0.1000000000 0.1000000000 0.1000000000 0.1000000000 0.1000000000 0.1000000000 0.1000000000 0.1000000000 0.1000000000 0.1000000000 0.1000000000 0.1000000000 0.1000000000 0.1000000000 0.1000000000 0.1000000000 0.1000000000 0.1000000000 0.1000000000 0.1000000000 0.1000000000 0.1000000000 0.1000000000 0.1000000000 0.1000000000 0.1000000000 0.1000000000 0.1000000000 0.1000000000 0.1000000000 0.1000000000 0.1000000000 0.1000000000 0.1000000000 0.1000000000 0.1000000000 0.1000000000 0.1000000000 0.1000000000 0.1000000000 0.1000000000 0.1000000000 0.1000000000 0.1000000000 0.1000000000 0.1000000000 0.1000000000 0.1000000000 0.1000000000 0.1000000000 0.1000000000 0.1000000000 0.1000000000 0.1000000000 0.1000000000 0.1000000000 0.1000000000 0.1000000000 0.1000000000 0.1000000000 0.1000000000 0.1000000000 0.1000000000 0.1000000000 0.1000000000 0.1000000000 0.1000000000 0.1000000000 0.1000000000 0.1000000000 0.1000000000 0.1000000000 0.1000000000 0.1000000000 0.1000000000 0.1000000000 0.1000000000 0.1000000000 0.1000000000 0.1000000000 0.1000000000 0.1000000000 0.1000000000 0.1000000000 0.1000000000 0.1000000000 0.1000000000 0.1000000000 0.1000000000 0.1000000000 0.1000000000 0.1000000000 0.1000000000 0.1000000000 0.1000000000 0.1000000000 0.1000000000 0.1000000000 0.1000000000 0.1000000000 0.1000000000 0.1000000000 0.1000000000 0.1000000000 0.1000000000 0.1000000000 0.1000000000 0.1000000000 0.1000000000 0.1000000000 0.1000000000 0.1000000000 0.1000000000 0.1000000000 0.1000000000 0.1000000000 0.1000000000 0.1000000000 0.1000000000 0.1000000000 0.1000000000 0.1000000000 0.1000000000 0.1000000000 0.1000000000 0.1000000000 0.1000000000 0.1000000000 0.1000000000 0.1000000000 0.1000000000 0.1000000000 0.1000000000 0.1000000000 0.1000000000 0.1000000000 0.1000000000 0.1000000000 0.1000000000 0.1000000000 0.1000000000 0.1000000000 0.1000000000 0.1000000000 0.1000000000 0.1000000000 0.1000000000 0.1000000000 0.1000000000 0.1000000000 0.1000000000 0.1000000000 0.1000000000 0.1000000000 0.1000000000 0.1000000000 0.1000000000 0.1000000000 0.1000000000 0.1000000000 0.1000000000 0.1000000000 0.1000000000 0.1000000000 0.1000000000 0.1000000000 0.1000000000 0.1000000000 0.1000000000 0.1000000000 0.1000000000 0.1000000000 0.1000000000 0.1000000000 0.1000000000 0.1000000000 0.1000000000 0.1000000000 0.1000000000 0.1000000000 0.1000000000 0.1000000000 0.1000000000 0.1000000000 0.1000000000 0.1000000000 0.1000000000 0.1000000000 0.1000000000 0.1000000000 0.1000000000 0.1000000000 0.1000000000 0.1000000000 0.1000000000 0.1000000000 0.1000000000 0.1000000000 0.1000000000 0.1000000000 0.1000000000 0.1000000000 0.1000000000 0.1000000000 0.1000000000 0.1000000000 0.1000000000 0.1000000000 0.1000000000 0.1000000000 0.1000000000 0.1000000000 0.1000000000 0.1000000000 0.1000000000 0.1000000000 0.1000000000 0.1000000000 0.1000000000 0.1000000000 0.1000000000 0.1000000000 0.1000000000 0.1000000000 0.1000000000 0.1000000000 0.1000000000 0.1000000000 0.1000000000 0.1000000000 0.1000000000 0.1000000000 0.1000000000 0.1000000000 0.1000000000 0.1000000000 0.1000000000 0.1000000000 0.1000000000 0.1000000000 0.1000000000 0.1000000000 0.1000000000 0.1000000000 0.1000000000 0.1000000000 0.1000000000 0.1000000000 0.1000000000 0.1000000000 0.1000000000 0.1000000000 0.1000000000 0.1000000000 0.1000000000 0.1000000000 0.1000000000 0.1000000000 0.1000000000 0.1000000000 0.1000000000 0.1000000000 0.1000000000 0.1000000000 0.1000000000 0.1000000000 0.1000000000 0.1000000000 0.1000000000 0.1000000000 0.1000000000 0.1000000000 0.1000000000 0.1000000000 0.1000000000 0.1000000000 0.1000000000 0.1000000000 0.1000000000 0.1000000000 0.1000000000 0.1000000000 0.1000000000 0.1000000000 0.1000000000 0.1000000000 0.1000000000 0.1000000000 0.1000000000 0.1000000000 0.1000000000 0.1000000000 0.1000000000 0.1000000000 0.1000000000 0.1000000000 0.1000000000 0.1000000000 0.1000000000 0.1000000000 0.1000000000 0.1000000000 0.1000000000 0.1000000000 0.1000000000 0.1000000000 0.1000000000 0.1000000000 0.1000000000 0.1000000000 0.1000000000 0.1000000000 0.1000000000 0.1000000000 0.1000000000 0.1000000000 0.1000000000 0.1000000000 0.1000000000 0.1000000000 0.1000000000 0.1000000000 0.1000000000 0.1000000000 0.1000000000 0.1000000000 0.1000000000 0.1000000000 0.1000000000 0.1000000000 0.1000000000 0.1000000000 0.1000000000 0.1000000000 0.1000000000 0.1000000000 0.1000000000 0.1000000000 0.1000000000 0.1000000000 0.1000000000 0.1000000000 0.1000000000 0.1000000000 0.1000000000 0.1000000000 0.1000000000 0.1000000000 0.1000000000 0.1000000000 0.1000000000 0.1000000000 0.1000000000 0.1000000000 0.1000000000 0.1000000000 0.1000000000 0.1000000000 0.1000000000 0.1000000000 0.1000000000 0.1000000000 0.1000000000 0.1000000000 0.1000000000 0.1000000000 0.1000000000 0.1000000000 0.1000000000 0.1000000000 0.1000000000 0.1000000000 0.1000000000 0.1000000000 0.1000000000 0.1000000000 0.1000000000 0.1000000000 0.1000000000 0.1000000000 0.1000000000 0.1000000000 0.1000000000 0.1000000000 0.1000000000 0.1000000000 0.1000000000 0.1000000000 0.1000000000 0.1000000000 0.1000000000 0.1000000000 0.1000000000 0.1000000000 0.1000000000 0.1000000000 0.1000000000 0.1000000000 0.1000000000 0.1000000000 0.1000000000 0.1000000000 0.1000000000 0.1000000000 0.1000000000 0.1000000000 0.1000000000 0.1000000000 0.1000000000 0.1000000000 0.1000000000 0.1000000000 0.1000000000 0.1000000000 0.1000000000 0.1000000000 0.1000000000 0.1000000000 0.1000000000 0.1000000000 0.1000000000 0.1000000000 0.1000000000 0.1000000000 0.1000000000 0.1000000000 0.1000000000 0.1000000000 0.1000000000 0.1000000000 0.1000000000 0.1000000000 0.1000000000 0.1000000000 0.1000000000 0.1000000000 0.1000000000 0.1000000000 0.1000000000 0.1000000000 0.1000000000 0.1000000000 0.1000000000 0.1000000000 0.1000000000 0.1000000000 0.1000000000 0.1000000000 0.1000000000 0.1000000000 0.1000000000 0.1000000000 0.1000000000 0.1000000000 0.1000000000 0.1000000000 0.1000000000 0.1000000000 0.1000000000 0.1000000000 0.1000000000 0.1000000000 0.1000000000 0.1000000000 0.1000000000 0.1000000000 0.1000000000 0.1000000000 0.1000000000 0.1000000000 0.1000000000 0.1000000000 0.1000000000 0.1000000000 0.1000000000 0.1000000000 0.1000000000 0.1000000000 0.1000000000 0.1000000000 0.1000000000 0.1000000000 0.1000000000 0.1000000000 0.1000000000 0.1000000000 0.1000000000 0.1000000000 0.1000000000 0.1000000000 0.1000000000 0.1000000000 0.1000000000 0.1000000000 0.1000000000 0.1000000000 0.1000000000 0.1000000000 0.1000000000 0.1000000000 0.1000000000 0.1000000000 0.1000000000 0.1000000000 0.1000000000 0.1000000000 0.1000000000 0.1000000000 0.1000000000 0.1000000000 0.1000000000 0.1000000000 0.1000000000 0.1000000000 0.1000000000 0.1000000000 0.1000000000 0.1000000000 0.1000000000 0.1000000000 0.1000000000 0.1000000000 0.1000000000 0.1000000000 0.1000000000 0.1000000000 0.1000000000 0.1000000000 0.1000000000 0.1000000000 0.1000000000 0.1000000000 0.1000000000 0.1000000000 0.1000000000 0.1000000000 0.1000000000 0.1000000000 0.1000000000 0.1000000000 0.1000000000 0.1000000000 0.1000000000 0.1000000000 0.1000000000 0.1000000000 0.1000000000 0.1000000000 0.1000000000 0.1000000000 0.1000000000 0.1000000000 0.1000000000 0.1000000000 0.1000000000 0.1000000000 0.1000000000 0.1000000000 0.1000000000 0.1000000000 0.1000000000 0.1000000000 0.1000000000 0.1000000000 0.1000000000 0.1000000000 0.1000000000 0.1000000000 0.1000000000 0.1000000000 0.1000000000 0.1000000000 0.1000000000 0.1000000000 0.1000000000 0.1000000000 0.1000000000 0.1000000000 0.1000000000 0.1000000000 0.1000000000 0.1000000000 0.1000000000 0.1000000000 0.1000000000 0.1000000000 0.1000000000 0.1000000000 0.1000000000 0.1000000000 0.1000000000 0.1000000000 0.1000000000 0.1000000000 0.1000000000 0.1000000000 0.1000000000 0.1000000000 0.1000000000 0.1000000000 0.1000000000 0.1000000000 0.1000000000 0.1000000000 0.1000000000 0.1000000000 0.1000000000 0.1000000000 0.1000000000 0.1000000000 0.1000000000 0.1000000000 0.1000000000 0.1000000000 0.1000000000 0.1000000000 0.1000000000 0.1000000000 0.1000000000 0.1000000000 0.1000000000 0.1000000000 0.1000000000 0.1000000000 0.1000000000 0.1000000000 0.1000000000 0.1000000000 0.1000000000 0.1000000000 0.1000000000 0.1000000000 0.1000000000 0.1000000000 0.1000000000 0.1000000000 0.1000000000 0.1000000000 0.1000000000 0.1000000000 0.1000000000 0.1000000000 0.1000000000 0.1000000000 0.1000000000 0.1000000000 0.1000000000 0.1000000000 0.1000000000 0.1000000000 0.1000000000 0.1000000000 0.1000000000 0.1000000000 0.1000000000 0.1000000000 0.1000000000 0.1000000000 0.1000000000 0.1000000000 0.1000000000 0.1000000000 0.1000000000 0.1000000000 0.1000000000 0.1000000000 0.1000000000 0.1000000000 0.1000000000 0.1000000000 0.1000000000 0.1000000000 0.1000000000 0.1000000000 0.1000000000 0.1000000000 0.1000000000 0.1000000000 0.1000000000 0.1000000000 0.1000000000 0.1000000000 0.1000000000 0.1000000000 0.1000000000 0.1000000000 0.1000000000 0.1000000000 0.1000000000 0.1000000000 0.1000000000 0.1000000000 0.1000000000 0.1000000000 0.1000000000 0.1000000000 0.1000000000 0.1000000000 0.1000000000 0.1000000000 0.1000000000 0.1000000000 0.1000000000 0.1000000000 0.1000000000 0.1000000000 0.1000000000 0.1000000000 0.1000000000 0.1000000000 0.1000000000 0.1000000000 0.1000000000 0.1000000000 0.1000000000 0.1000000000 0.1000000000 0.1000000000 0.1000000000 0.1000000000 0.1000000000 0.1000000000 0.1000000000 0.1000000000 0.1000000000 0.1000000000 0.1000000000 0.1000000000 0.1000000000 0.1000000000 0.1000000000 0.1000000000 0.1000000000 0.1000000000 0.1000000000 0.1000000000 0.1000000000 0.1000000000 0.1000000000 0.1000000000 0.1000000000 0.1000000000 0.1000000000 0.1000000000 0.1000000000 0.1000000000 0.1000000000 0.1000000000 0.1000000000 0.1000000000 0.1000000000 0.1000000000 0.1000000000 0.1000000000 0.1000000000 0.1000000000 0.1000000000 0.1000000000 0.1000000000 0.1000000000 0.1000000000 0.1000000000 0.1000000000 0.1000000000 0.1000000000 0.1000000000 0.1000000000 0.1000000000 0.1000000000 0.1000000000 0.1000000000 0.1000000000 0.1000000000 0.1000000000 0.1000000000 0.1000000000 0.1000000000 0.1000000000 0.1000000000 0.1000000000 0.1000000000 0.1000000000 0.1000000000 0.1000000000 0.1000000000 0.1000000000 0.1000000000 0.1000000000 0.1000000000 0.1000000000 0.1000000000 0.1000000000 0.1000000000 0.1000000000 0.1000000000 0.1000000000 0.1000000000 0.1000000000 0.1000000000 0.1000000000 0.1000000000 0.1000000000 0.1000000000 0.1000000000 0.1000000000 0.1000000000 0.1000000000 0.1000000000 0.1000000000 0.1000000000 0.1000000000 0.1000000000 0.1000000000 0.1000000000 0.1000000000 0.1000000000 0.1000000000 0.1000000000 0.1000000000 0.1000000000 0.1000000000 0.1000000000 0.1000000000 0.1000000000 0.1000000000 0.1000000000 0.1000000000 0.1000000000 0.1000000000 0.1000000000 0.1000000000 0.1000000000 0.1000000000 0.1000000000 0.1000000000 0.1000000000 0.1000000000 0.1000000000 0.1000000000 0.1000000000 0.1000000000 0.1000000000 0.1000000000 0.1000000000 0.1000000000 0.1000000000 0.1000000000 0.1000000000 0.1000000000 0.1000000000 0.1000000000 0.1000000000 0.1000000000 0.1000000000 0.1000000000 0.1000000000 0.1000000000 0.1000000000 0.1000000000 0.1000000000 0.1000000000 0.1000000000 0.1000000000 0.1000000000 0.1000000000 0.1000000000 0.1000000000 0.1000000000 0.1000000000 0.1000000000 0.1000000000 0.1000000000 0.1000000000 0.1000000000 0.1000000000 0.1000000000 0.1000000000 0.1000000000 0.1000000000 0.1000000000 0.1000000000 0.1000000000 0.1000000000 0.1000000000 0.1000000000 0.1000000000 0.1000000000 0.1000000000 0.1000000000 0.1000000000 0.1000000000 0.1000000000 0.1000000000 0.1000000000 0.1000000000 0.1000000000 0.1000000000 0.1000000000 0.1000000000 0.1000000000 0.1000000000 0.1000000000 0.1000000000 0.1000000000 0.1000000000 0.1000000000 0.1000000000 0.1000000000 0.1000000000 0.1000000000 0.1000000000 0.1000000000 0.1000000000 0.1000000000 0.1000000000 0.1000000000 0.1000000000 0.1000000000 0.1000000000 0.1000000000 0.1000000000 0.1000000000 0.1000000000 0.1000000000 0.1000000000 0.1000000000 0.1000000000 0.1000000000 0.1000000000 0.1000000000 0.1000000000 0.1000000000 0.1000000000 0.1000000000 0.1000000000 0.1000000000 0.1000000000 0.1000000000 0.1000000000 0.1000000000 0.1000000000 0.1000000000 0.1000000000 0.1000000000 0.1000000000 0.1000000000 0.1000000000 0.1000000000 0.1000000000 0.1000000000 0.1000000000 0.1000000000 0.1000000000 0.1000000000 0.1000000000 0.1000000000 0.1000000000 0.1000000000 0.1000000000 0.1000000000 0.1000000000 0.1000000000 0.1000000000 0.1000000000 0.1000000000 0.1000000000 0.1000000000 0.1000000000 0.1000000000 0.1000000000 0.1000000000 0.1000000000 0.1000000000 0.1000000000 0.1000000000 0.1000000000 0.1000000000 0.1000000000 0.1000000000 0.1000000000 0.1000000000 0.1000000000 0.1000000000 0.1000000000 0.1000000000 0.1000000000 0.1000000000 0.1000000000 0.1000000000 0.1000000000 0.1000000000 0.1000000000 0.1000000000 0.1000000000 0.1000000000 0.1000000000 0.1000000000 0.1000000000 0.1000000000 0.1000000000 0.1000000000 0.1000000000 0.1000000000 0.1000000000 0.1000000000 0.1000000000 0.1000000000 0.1000000000 0.1000000000 0.1000000000 0.1000000000 0.1000000000 0.1000000000 0.1000000000 0.1000000000 0.1000000000 0.1000000000 0.1000000000 0.1000000000 0.1000000000 0.1000000000 0.1000000000 0.1000000000 0.1000000000 0.1000000000 0.1000000000 0.1000000000 0.1000000000 0.1000000000 0.1000000000 0.1000000000 0.1000000000 0.1000000000 0.1000000000 0.1000000000 0.1000000000 0.1000000000 0.1000000000 0.1000000000 0.1000000000 0.1000000000 0.1000000000 0.1000000000 0.1000000000 0.1000000000 0.1000000000 0.1000000000 0.1000000000 0.1000000000 0.1000000000 0.1000000000 0.1000000000 0.1000000000 0.1000000000 0.1000000000 0.1000000000 0.1000000000 0.1000000000 0.1000000000 0.1000000000 0.1000000000 0.1000000000 0.1000000000 0.1000000000 0.1000000000 0.1000000000 0.1000000000 0.1000000000 0.1000000000 0.1000000000 0.1000000000 0.1000000000 0.1000000000 0.1000000000 0.1000000000 0.1000000000 0.1000000000 0.1000000000 0.1000000000 0.1000000000 0.1000000000 0.1000000000 0.1000000000 0.1000000000 0.1000000000 0.1000000000 0.1000000000 0.1000000000 0.1000000000 0.1000000000 0.1000000000 0.1000000000 0.1000000000 0.1000000000 0.1000000000 0.1000000000 0.1000000000 0.1000000000 0.1000000000 0.1000000000 0.1000000000 0.1000000000 0.1000000000 0.1000000000 0.1000000000 0.1000000000 0.1000000000 0.1000000000 0.1000000000 0.1000000000 0.1000000000 0.1000000000 0.1000000000 0.1000000000 0.1000000000 0.1000000000 0.1000000000 0.1000000000 0.1000000000 0.1000000000 0.1000000000 0.1000000000 0.1000000000 0.1000000000 0.1000000000 0.1000000000 0.1000000000 0.1000000000 0.1000000000 0.1000000000 0.1000000000 0.1000000000 0.1000000000 0.1000000000 0.1000000000 0.1000000000 0.1000000000 0.1000000000 0.1000000000 0.1000000000 0.1000000000 0.1000000000 0.1000000000 0.1000000000 0.1000000000 0.1000000000 0.1000000000 0.1000000000 0.1000000000 0.1000000000 0.1000000000 0.1000000000 0.1000000000 0.1000000000 0.1000000000 0.1000000000 0.1000000000 0.1000000000 0.1000000000 0.1000000000 0.1000000000 0.1000000000 0.1000000000 0.1000000000 0.1000000000 0.1000000000 0.1000000000 0.1000000000 0.1000000000 0.1000000000 0.1000000000 0.1000000000 0.1000000000 0.1000000000 0.1000000000 0.1000000000 0.1000000000 0.1000000000 0.1000000000 0.1000000000 0.1000000000 0.1000000000 0.1000000000 0.1000000000 0.1000000000 0.1000000000 0.1000000000 0.1000000000 0.1000000000 0.1000000000 0.1000000000 0.1000000000 0.1000000000 0.1000000000 0.1000000000 0.1000000000 0.1000000000 0.1000000000 0.1000000000 0.1000000000 0.1000000000 0.1000000000 0.1000000000 0.1000000000 0.1000000000 0.1000000000 0.1000000000 0.1000000000 0.1000000000 0.1000000000 0.1000000000 0.1000000000 0.1000000000 0.1000000000 0.1000000000 0.1000000000 0.1000000000 0.1000000000 0.1000000000 0.1000000000 0.1000000000 0.1000000000 0.1000000000 0.1000000000 0.1000000000 0.1000000000 0.1000000000 0.1000000000 0.1000000000 0.1000000000 0.1000000000 0.1000000000 0.1000000000 0.1000000000 0.1000000000 0.1000000000 0.1000000000 0.1000000000 0.1000000000 0.1000000000 0.1000000000 0.1000000000 0.1000000000 0.1000000000 0.1000000000 0.1000000000 0.1000000000 0.1000000000 0.1000000000 0.1000000000 0.1000000000 0.1000000000 0.1000000000 0.1000000000 0.1000000000 0.1000000000 0.1000000000 0.1000000000 0.1000000000 0.1000000000 0.1000000000 0.1000000000 0.1000000000 0.1000000000 0.1000000000 0.1000000000 0.1000000000 0.1000000000 0.1000000000 0.1000000000 0.1000000000 0.1000000000 0.1000000000 0.1000000000 0.1000000000 0.1000000000 0.1000000000 0.1000000000 0.1000000000 0.1000000000 0.1000000000 0.1000000000 0.1000000000 0.1000000000 0.1000000000 0.1000000000 0.1000000000 0.1000000000 0.1000000000 0.1000000000 0.1000000000 0.1000000000 0.1000000000 0.1000000000 0.1000000000 0.1000000000 0.1000000000 0.1000000000 0.1000000000 0.1000000000 0.1000000000 0.1000000000 0.1000000000 0.1000000000 0.1000000000 0.1000000000 0.1000000000 0.1000000000 0.1000000000 0.1000000000 0.1000000000 0.1000000000 0.1000000000 0.1000000000 0.1000000000 0.1000000000 0.1000000000 0.1000000000 0.1000000000 0.1000000000 0.1000000000 0.1000000000 0.1000000000 0.1000000000 0.1000000000 0.1000000000 0.1000000000 0.1000000000 0.1000000000 0.1000000000 0.1000000000 0.1000000000 0.1000000000 0.1000000000 0.1000000000 0.1000000000 0.1000000000 0.1000000000 0.1000000000 0.1000000000 0.1000000000 0.1000000000 0.1000000000 0.1000000000 0.1000000000 0.1000000000 0.1000000000 0.1000000000 0.1000000000 0.1000000000 0.1000000000 0.1000000000 0.1000000000 0.1000000000 0.1000000000 0.1000000000 0.1000000000 0.1000000000 0.1000000000 0.1000000000 0.1000000000 0.1000000000 0.1000000000 0.1000000000 0.1000000000 0.1000000000 0.1000000000 0.1000000000 0.1000000000 0.1000000000 0.1000000000 0.1000000000 0.1000000000 0.1000000000 0.1000000000 0.1000000000 0.1000000000 0.1000000000 0.1000000000 0.1000000000 0.1000000000 0.1000000000 0.1000000000 0.1000000000 0.1000000000 0.1000000000 0.1000000000 0.1000000000 0.1000000000 0.1000000000 0.1000000000 0.1000000000 0.1000000000 0.1000000000 0.1000000000 0.1000000000 0.1000000000 0.1000000000 0.1000000000 0.1000000000 0.1000000000 0.1000000000 0.1000000000 0.1000000000 0.1000000000 0.1000000000 0.1000000000 0.1000000000 0.1000000000 0.1000000000 0.1000000000 0.1000000000 0.1000000000 0.1000000000 0.1000000000 0.1000000000 0.1000000000 0.1000000000 0.1000000000 0.1000000000 0.1000000000 0.1000000000 0.1000000000 0.1000000000 0.1000000000 0.1000000000 0.1000000000 0.1000000000 0.1000000000 0.1000000000 0.1000000000 0.1000000000 0.1000000000 0.1000000000 0.1000000000 0.1000000000 0.1000000000 0.1000000000 0.1000000000 0.1000000000 0.1000000000 0.1000000000 0.1000000000 0.1000000000 0.1000000000 0.1000000000 0.1000000000 0.1000000000 0.1000000000 0.1000000000 0.1000000000 0.1000000000 0.1000000000 0.1000000000 0.1000000000 0.10000000