<?xml version="1.0"?>
<VTKFile type="UnstructuredGrid" version="0.1" byte_order="LittleEndian">
  <UnstructuredGrid>
    <FieldData>
      <DataArray type="Float32" Name="TIME"  NumberOfTuples="1" format="ascii"> 1.2500000000 </DataArray>
      <DataArray type="Int32"   Name="STEP"  NumberOfTuples="1" format="ascii"> 312500 </DataArray>
    </FieldData>
    <Piece NumberOfPoints="11600" NumberOfCells="11600">
      <Points>
        <DataArray type="Float32" NumberOfComponents="3" format="ascii">
 -0.1991238532 -0.4433774009 -0.0000000000 0.0008603118 -0.4408608029 -0.0000000000 0.2008444793 -0.4383442052 -0.0000000000 0.4008286444 -0.4358276075 -0.0000000000 0.6008128120 -0.4333110097 -0.0000000000 0.8007969779 -0.4307944123 -0.0000000000 1.0007811440 -0.4282778145 -0.0000000000 1.2007653108 -0.4257612167 -0.0000000000 1.4007494759 -0.4232446183 -0.0000000000 1.6007336421 -0.4207280199 -0.0000000000 1.8007178075 -0.4182114217 -0.0000000000 2.0007019727 -0.4156948239 0.0000000000 2.2006861382 -0.4131782264 0.0000000000 2.4006703015 -0.4106616292 0.0000000000 2.6006544666 -0.4081450323 0.0000000000 2.8006386312 -0.4056284365 0.0000000000 3.0006227957 -0.4031118411 0.0000000000 3.2006069610 -0.4005952463 0.0000000000 3.4005911244 -0.3980786518 0.0000000000 3.6005752899 -0.3955620573 0.0000000000 3.8005594549 -0.3930454632 0.0000000000 4.0005436202 -0.3905288690 0.0000000000 4.2005277860 -0.3880122749 0.0000000000 4.4005119505 -0.3854956804 0.0000000000 4.6004961164 -0.3829790855 0.0000000000 4.8004802819 -0.3804624907 0.0000000000 5.0004644474 -0.3779458953 0.0000000000 5.2004486134 -0.3754292998 0.0000000000 5.4004327776 -0.3729127041 0.0000000000 5.6004169433 -0.3703961082 0.0000000000 5.8004011084 -0.3678795126 0.0000000000 6.0003852733 -0.3653629171 0.0000000000 6.2003694388 -0.3628463221 0.0000000000 6.4003536025 -0.3603297271 0.0000000000 6.6003377681 -0.3578131325 0.0000000000 6.8003219333 -0.3552965381 0.0000000000 7.0003060986 -0.3527799436 0.0000000000 7.2002902646 -0.3502633493 0.0000000000 7.4002744295 -0.3477467546 0.0000000000 7.6002585956 -0.3452301597 0.0000000000 7.8002427613 -0.3427135649 0.0000000000 8.0002269269 -0.3401969699 0.0000000000 8.2002110929 -0.3376803749 0.0000000000 8.4001952578 -0.3351637797 0.0000000000 8.6001794238 -0.3326471844 0.0000000000 8.8001635893 -0.3301305894 0.0000000000 9.0001477550 -0.3276139942 0.0000000000 9.2001319213 -0.3250973993 0.0000000000 9.4001160865 -0.3225808042 0.0000000000 9.6001002528 -0.3200642088 0.0000000000 9.8000844184 -0.3175476136 0.0000000000 10.0000685841 -0.3150310183 0.0000000000 10.2000527499 -0.3125144230 0.0000000000 10.4000369141 -0.3099978279 0.0000000000 10.6000210794 -0.3074812331 0.0000000000 10.8000052441 -0.3049646391 0.0000000000 10.9999894085 -0.3024480457 0.0000000000 11.1999735736 -0.2999314533 0.0000000000 11.3999577365 -0.2974148615 0.0000000000 11.5999419017 -0.2948982704 0.0000000000 11.7999260663 -0.2923816797 0.0000000000 11.9999102311 -0.2898650896 0.0000000000 12.1998943967 -0.2873485001 0.0000000000 12.3998785602 -0.2848319106 0.0000000000 12.5998627261 -0.2823153219 0.0000000000 12.7998468898 -0.2797987345 0.0000000000 12.9998310554 -0.2772821470 0.0000000000 13.1998152212 -0.2747655614 0.0000000000 13.3997993849 -0.2722489767 0.0000000000 13.5997835528 -0.2697323932 0.0000000000 13.7997677178 -0.2672158091 0.0000000000 14.0156803879 -0.2613120503 0.0000000000 14.2156800063 -0.2617024302 0.0000000000 14.4156796245 -0.2620928099 0.0000000000 14.6156792454 -0.2624831890 0.0000000000 14.8156788638 -0.2628735691 0.0000000000 15.0156784833 -0.2632639484 0.0000000000 15.2156781028 -0.2636543284 0.0000000000 15.4156777213 -0.2640447080 0.0000000000 15.6156773417 -0.2644350877 0.0000000000 15.8156769603 -0.2648254676 0.0000000000 16.0156765801 -0.2652158474 0.0000000000 16.2156761996 -0.2656062269 0.0000000000 16.4564546062 -0.1975160177 0.0000000083 16.6564349422 -0.1947114446 0.0000000083 16.8564152769 -0.1919068714 0.0000000084 17.0563956135 -0.1891022966 0.0000000084 17.2563759477 -0.1862977217 0.0000000084 17.4563562813 -0.1834931473 0.0000000085 17.6563366156 -0.1806885743 0.0000000086 17.8563169472 -0.1778840023 0.0000000089 18.0562972813 -0.1750794318 0.0000000092 18.2562776152 -0.1722748621 0.0000000095 18.4562579492 -0.1694702926 0.0000000098 18.6562382848 -0.1666657237 0.0000000101 18.8562186184 -0.1638611550 0.0000000103 19.0561989544 -0.1610565860 0.0000000105 19.2561792890 -0.1582520177 0.0000000105 19.4561596234 -0.1554474499 0.0000000106 19.6561399575 -0.1526428825 0.0000000106 -0.1013112080 -0.2689277348 -0.0000000000 0.0986729572 -0.2664111373 -0.0000000000 0.2986571242 -0.2638945393 -0.0000000000 0.4986412912 -0.2613779418 -0.0000000000 0.6986254573 -0.2588613441 -0.0000000000 0.8986096232 -0.2563447463 -0.0000000000 1.0985937891 -0.2538281483 -0.0000000000 1.2985779555 -0.2513115500 -0.0000000000 1.4985621217 -0.2487949518 -0.0000000000 1.6985462872 -0.2462783536 -0.0000000000 1.8985304526 -0.2437617555 0.0000000000 2.0985146178 -0.2412451574 0.0000000000 2.2984987830 -0.2387285599 0.0000000000 2.4984829481 -0.2362119630 0.0000000000 2.6984671129 -0.2336953668 0.0000000000 2.8984512777 -0.2311787710 0.0000000000 3.0984354424 -0.2286621757 0.0000000000 3.2984196074 -0.2261455809 0.0000000000 3.4984037726 -0.2236289868 0.0000000000 3.6983879376 -0.2211123926 0.0000000000 3.8983721028 -0.2185957984 0.0000000000 4.0983562679 -0.2160792041 0.0000000000 4.2983404332 -0.2135626099 0.0000000000 4.4983245986 -0.2110460154 0.0000000000 4.6983087639 -0.2085294206 0.0000000000 4.8982929292 -0.2060128254 0.0000000000 5.0982770945 -0.2034962298 0.0000000000 5.2982612599 -0.2009796342 0.0000000000 5.4982454253 -0.1984630384 0.0000000000 5.6982295903 -0.1959464428 0.0000000000 5.8982137554 -0.1934298472 0.0000000000 6.0981979205 -0.1909132518 0.0000000000 6.2981820857 -0.1883966567 0.0000000000 6.4981662509 -0.1858800620 0.0000000000 6.6981504160 -0.1833634676 0.0000000000 6.8981345815 -0.1808468733 0.0000000000 7.0981187468 -0.1783302787 0.0000000000 7.2981029124 -0.1758136841 0.0000000000 7.4980870782 -0.1732970893 0.0000000000 7.6980712437 -0.1707804946 0.0000000000 7.8980554093 -0.1682638997 0.0000000000 8.0980395748 -0.1657473046 0.0000000000 8.2980237404 -0.1632307094 0.0000000000 8.4980079061 -0.1607141141 0.0000000000 8.6979920716 -0.1581975192 0.0000000000 8.8979762373 -0.1556809240 0.0000000000 9.0979604029 -0.1531643290 0.0000000000 9.2979445688 -0.1506477339 0.0000000000 9.4979287348 -0.1481311386 0.0000000000 9.6979129005 -0.1456145435 0.0000000000 9.8978970662 -0.1430979482 0.0000000000 10.0978812317 -0.1405813529 0.0000000000 10.2978653972 -0.1380647575 0.0000000000 10.4978495626 -0.1355481624 0.0000000000 10.6978337277 -0.1330315681 0.0000000000 10.8978178929 -0.1305149746 0.0000000000 11.0978020577 -0.1279983816 0.0000000000 11.2977862226 -0.1254817893 0.0000000000 11.4977703876 -0.1229651980 0.0000000000 11.6977545526 -0.1204486073 0.0000000000 11.8977387177 -0.1179320171 0.0000000000 12.0977228827 -0.1154154270 0.0000000000 12.2977070483 -0.1128988374 0.0000000000 12.4976912138 -0.1103822488 0.0000000000 12.6976753792 -0.1078656604 0.0000000000 12.8976595450 -0.1053490734 0.0000000000 13.0976437105 -0.1028324872 0.0000000000 13.2976278769 -0.1003159011 0.0000000000 13.4976120432 -0.0977993182 0.0000000000 13.6975962098 -0.0952827345 0.0000000000 13.9160186548 -0.0879121128 0.0000000000 14.1160182751 -0.0883024907 0.0000000000 14.3160178944 -0.0886928702 0.0000000000 14.5160175137 -0.0890832502 0.0000000000 14.7160171330 -0.0894736297 0.0000000000 14.9160167523 -0.0898640095 0.0000000000 15.1160163714 -0.0902543893 0.0000000000 15.3160159906 -0.0906447688 0.0000000000 15.5160156103 -0.0910351490 0.0000000000 15.7160152295 -0.0914255283 0.0000000000 15.9160148491 -0.0918159079 0.0000000000 16.1160144658 -0.0922062899 0.0000000000 16.3540356079 -0.0257302547 0.0000000080 16.5540159416 -0.0229256819 0.0000000081 16.7539962773 -0.0201211085 0.0000000081 16.9539766128 -0.0173165346 0.0000000081 17.1539569476 -0.0145119595 0.0000000082 17.3539372822 -0.0117073849 0.0000000082 17.5539176165 -0.0089028112 0.0000000084 17.7538979509 -0.0060982382 0.0000000086 17.9538782852 -0.0032936672 0.0000000088 18.1538586195 -0.0004890974 0.0000000091 18.3538389540 0.0023154720 0.0000000094 18.5538192888 0.0051200409 0.0000000097 18.7537996241 0.0079246102 0.0000000099 18.9537799596 0.0107291788 0.0000000100 19.1537602945 0.0135337474 0.0000000101 19.3537406294 0.0163383155 0.0000000102 19.5537209643 0.0191428830 0.0000000103 19.7537012982 0.0219474501 0.0000000103 -0.2034827291 -0.0969946659 -0.0000000000 -0.0034985633 -0.0944780682 -0.0000000000 0.1964856041 -0.0919614704 -0.0000000000 0.3964697694 -0.0894448726 -0.0000000000 0.5964539366 -0.0869282749 -0.0000000000 0.7964381026 -0.0844116771 -0.0000000000 0.9964222687 -0.0818950794 -0.0000000000 1.1964064352 -0.0793784813 -0.0000000000 1.3963906005 -0.0768618828 -0.0000000000 1.5963747668 -0.0743452847 -0.0000000000 1.7963589326 -0.0718286864 -0.0000000000 1.9963430981 -0.0693120883 0.0000000000 2.1963272639 -0.0667954906 0.0000000000 2.3963114283 -0.0642788931 0.0000000000 2.5962955940 -0.0617622968 0.0000000000 2.7962797593 -0.0592457008 0.0000000000 2.9962639245 -0.0567291053 0.0000000000 3.1962480899 -0.0542125102 0.0000000000 3.3962322542 -0.0516959156 0.0000000000 3.5962164198 -0.0491793215 0.0000000000 3.7962005851 -0.0466627273 0.0000000000 3.9961847503 -0.0441461331 0.0000000000 4.1961689158 -0.0416295389 0.0000000000 4.3961530802 -0.0391129444 0.0000000000 4.5961372457 -0.0365963498 0.0000000000 4.7961214111 -0.0340797549 0.0000000000 4.9961055764 -0.0315631596 0.0000000000 5.1960897421 -0.0290465639 0.0000000000 5.3960739066 -0.0265299682 0.0000000000 5.5960580723 -0.0240133725 0.0000000000 5.7960422376 -0.0214967769 0.0000000000 5.9960264029 -0.0189801814 0.0000000000 6.1960105685 -0.0164635861 0.0000000000 6.3959947332 -0.0139469913 0.0000000000 6.5959788988
[...]
      <PointData Scalars="radius">
        <DataArray type="Float32" Name="radius" format="ascii">
 0.1000000000 0.1000000000 0.1000000000 0.1000000000 0.1000000000 0.1000000000 0.1000000000 0.1000000000 0.1000000000 0.1000000000 0.1000000000 0.1000000000 0.1000000000 0.1000000000 0.1000000000 0.1000000000 0.1000000000 0.1000000000 0.1000000000 0.1000000000 0.1000000000 0.1000000000 0.1000000000 0.1000000000 0.1000000000 0.1000000000 0.1000000000 0.1000000000 0.1000000000 0.1000000000 0.1000000000 0.1000000000 0.1000000000 0.1000000000 0.1000000000 0.1000000000 0.1000000000 0.1000000000 0.1000000000 0.1000000000 0.1000000000 0.1000000000 0.1000000000 0.1000000000 0.1000000000 0.1000000000 0.1000000000 0.1000000000 0.1000000000 0.1000000000 0.1000000000 0.1000000000 0.1000000000 0.1000000000 0.1000000000 0.1000000000 0.1000000000 0.1000000000 0.1000000000 0.1000000000 0.1000000000 0.1000000000 0.1000000000 0.1000000000 0.1000000000 0.1000000000 0.1000000000 0.1000000000 0.1000000000 0.1000000000 0.1000000000 0.1000000000 0.1000000000 0.1000000000 0.1000000000 0.1000000000 0.1000000000 0.1000000000 0.1000000000 0.1000000000 0.1000000000 0.1000000000 0.1000000000 0.1000000000 0.1000000000 0.1000000000 0.1000000000 0.1000000000 0.1000000000 0.1000000000 0.1000000000 0.1000000000 0.1000000000 0.1000000000 0.1000000000 0.1000000000 0.1000000000 0.1000000000 0.1000000000 0.1000000000 0.1000000000 0.1000000000 0.1000000000 0.1000000000 0.1000000000 0.1000000000 0.1000000000 0.1000000000 0.1000000000 0.1000000000 0.1000000000 0.1000000000 0.1000000000 0.1000000000 0.1000000000 0.1000000000 0.1000000000 0.1000000000 0.1000000000 0.1000000000 0.1000000000 0.1000000000 0.1000000000 0.1000000000 0.1000000000 0.1000000000 0.1000000000 0.1000000000 0.1000000000 0.1000000000 0.1000000000 0.1000000000 0.1000000000 0.1000000000 0.1000000000 0.1000000000 0.1000000000 0.1000000000 0.1000000000 0.1000000000 0.1000000000 0.1000000000 0.1000000000 0.1000000000 0.1000000000 0.1000000000 0.1000000000 0.1000000000 0.1000000000 0.1000000000 0.1000000000 0.1000000000 0.1000000000 0.1000000000 0.1000000000 0.1000000000 0.1000000000 0.1000000000 0.1000000000 0.1000000000 0.1000000000 0.1000000000 0.1000000000 0.1000000000 0.1000000000 0.1000000000 0.1000000000 0.1000000000 0.1000000000 0.1000000000 0.1000000000 0.1000000000 0.1000000000 0.1000000000 0.1000000000 0.1000000000 0.1000000000 0.1000000000 0.1000000000 0.1000000000 0.1000000000 0.1000000000 0.1000000000 0.1000000000 0.1000000000 0.1000000000 0.1000000000 0.1000000000 0.1000000000 0.1000000000 0.1000000000 0.1000000000 0.1000000000 0.1000000000 0.1000000000 0.1000000000 0.1000000000 0.1000000000 0.1000000000 0.1000000000 0.1000000000 0.1000000000 0.1000000000 0.1000000000 0.1000000000 0.1000000000 0.1000000000 0.1000000000 0.1000000000 0.1000000000 0.1000000000 0.1000000000 0.1000000000 0.1000000000 0.1000000000 0.1000000000 0.1000000000 0.1000000000 0.1000000000 0.1000000000 0.1000000000 0.1000000000 0.1000000000 0.1000000000 0.1000000000 0.1000000000 0.1000000000 0.1000000000 0.1000000000 0.1000000000 0.1000000000 0.1000000000 0.1000000000 0.1000000000 0.1000000000 0.1000000000 0.1000000000 0.1000000000 0.1000000000 0.1000000000 0.1000000000 0.1000000000 0.1000000000 0.1000000000 0.1000000000 0.1000000000 0.1000000000 0.1000000000 0.1000000000 0.1000000000 0.1000000000 0.1000000000 0.1000000000 0.1000000000 0.1000000000 0.1000000000 0.1000000000 0.1000000000 0.1000000000 0.1000000000 0.1000000000 0.1000000000 0.1000000000 0.1000000000 0.1000000000 0.1000000000 0.1000000000 0.1000000000 0.1000000000 0.1000000000 0.1000000000 0.1000000000 0.1000000000 0.1000000000 0.1000000000 0.1000000000 0.1000000000 0.1000000000 0.1000000000 0.1000000000 0.1000000000 0.1000000000 0.1000000000 0.1000000000 0.1000000000 0.1000000000 0.1000000000 0.1000000000 0.1000000000 0.1000000000 0.1000000000 0.1000000000 0.1000000000 0.1000000000 0.1000000000 0.1000000000 0.1000000000 0.1000000000 0.1000000000 0.1000000000 0.1000000000 0.1000000000 0.1000000000 0.1000000000 0.1000000000 0.1000000000 0.1000000000 0.1000000000 0.1000000000 0.1000000000 0.1000000000 0.1000000000 0.1000000000 0.1000000000 0.1000000000 0.1000000000 0.1000000000 0.1000000000 0.1000000000 0.1000000000 0.1000000000 0.1000000000 0.1000000000 0.1000000000 0.1000000000 0.1000000000 0.1000000000 0.1000000000 0.1000000000 0.1000000000 0.1000000000 0.1000000000 0.1000000000 0.1000000000 0.1000000000 0.1000000000 0.1000000000 0.1000000000 0.1000000000 0.1000000000 0.1000000000 0.1000000000 0.1000000000 0.1000000000 0.1000000000 0.1000000000 0.1000000000 0.1000000000 0.1000000000 0.1000000000 0.1000000000 0.1000000000 0.1000000000 0.1000000000 0.1000000000 0.1000000000 0.1000000000 0.1000000000 0.1000000000 0.1000000000 0.1000000000 0.1000000000 0.1000000000 0.1000000000 0.1000000000 0.1000000000 0.1000000000 0.1000000000 0.1000000000 0.1000000000 0.1000000000 0.1000000000 0.1000000000 0.1000000000 0.1000000000 0.1000000000 0.1000000000 0.1000000000 0.1000000000 0.1000000000 0.1000000000 0.1000000000 0.1000000000 0.1000000000 0.1000000000 0.1000000000 0.1000000000 0.1000000000 0.1000000000 0.1000000000 0.1000000000 0.1000000000 0.1000000000 0.1000000000 0.1000000000 0.1000000000 0.1000000000 0.1000000000 0.1000000000 0.1000000000 0.1000000000 0.1000000000 0.1000000000 0.1000000000 0.1000000000 0.1000000000 0.1000000000 0.1000000000 0.1000000000 0.1000000000 0.1000000000 0.1000000000 0.1000000000 0.1000000000 0.1000000000 0.1000000000 0.1000000000 0.1000000000 0.1000000000 0.1000000000 0.1000000000 0.1000000000 0.1000000000 0.1000000000 0.1000000000 0.1000000000 0.1000000000 0.1000000000 0.1000000000 0.1000000000 0.1000000000 0.1000000000 0.1000000000 0.1000000000 0.1000000000 0.1000000000 0.1000000000 0.1000000000 0.1000000000 0.1000000000 0.1000000000 0.1000000000 0.1000000000 0.1000000000 0.1000000000 0.1000000000 0.1000000000 0.1000000000 0.1000000000 0.1000000000 0.1000000000 0.1000000000 0.1000000000 0.1000000000 0.1000000000 0.1000000000 0.1000000000 0.1000000000 0.1000000000 0.1000000000 0.1000000000 0.1000000000 0.1000000000 0.1000000000 0.1000000000 0.1000000000 0.1000000000 0.1000000000 0.1000000000 0.1000000000 0.1000000000 0.1000000000 0.1000000000 0.1000000000 0.1000000000 0.1000000000 0.1000000000 0.1000000000 0.1000000000 0.1000000000 0.1000000000 0.1000000000 0.1000000000 0.1000000000 0.1000000000 0.1000000000 0.1000000000 0.1000000000 0.1000000000 0.1000000000 0.1000000000 0.1000000000 0.1000000000 0.1000000000 0.1000000000 0.1000000000 0.1000000000 0.1000000000 0.1000000000 0.1000000000 0.1000000000 0.1000000000 0.1000000000 0.1000000000 0.1000000000 0.1000000000 0.1000000000 0.1000000000 0.1000000000 0.1000000000 0.1000000000 0.1000000000 0.1000000000 0.1000000000 0.1000000000 0.1000000000 0.1000000000 0.1000000000 0.1000000000 0.1000000000 0.1000000000 0.1000000000 0.1000000000 0.1000000000 0.1000000000 0.1000000000 0.1000000000 0.1000000000 0.1000000000 0.1000000000 0.1000000000 0.1000000000 0.1000000000 0.1000000000 0.1000000000 0.1000000000 0.1000000000 0.1000000000 0.1000000000 0.1000000000 0.1000000000 0.1000000000 0.1000000000 0.1000000000 0.1000000000 0.1000000000 0.1000000000 0.1000000000 0.1000000000 0.1000000000 0.1000000000 0.1000000000 0.1000000000 0.1000000000 0.1000000000 0.1000000000 0.1000000000 0.1000000000 0.1000000000 0.1000000000 0.1000000000 0.1000000000 0.1000000000 0.1000000000 0.1000000000 0.1000000000 0.1000000000 0.1000000000 0.1000000000 0.1000000000 0.1000000000 0.1000000000 0.1000000000 0.1000000000 0.1000000000 0.1000000000 0.1000000000 0.1000000000 0.1000000000 0.1000000000 0.1000000000 0.1000000000 0.1000000000 0.1000000000 0.1000000000 0.1000000000 0.1000000000 0.1000000000 0.1000000000 0.1000000000 0.1000000000 0.1000000000 0.1000000000 0.1000000000 0.1000000000 0.1000000000 0.1000000000 0.1000000000 0.1000000000 0.1000000000 0.1000000000 0.1000000000 0.1000000000 0.1000000000 0.1000000000 0.1000000000 0.1000000000 0.1000000000 0.1000000000 0.1000000000 0.1000000000 0.1000000000 0.1000000000 0.1000000000 0.1000000000 0.1000000000 0.1000000000 0.1000000000 0.1000000000 0.1000000000 0.1000000000 0.1000000000 0.1000000000 0.1000000000 0.1000000000 0.1000000000 0.1000000000 0.1000000000 0.1000000000 0.1000000000 0.1000000000 0.1000000000 0.1000000000 0.1000000000 0.1000000000 0.1000000000 0.1000000000 0.1000000000 0.1000000000 0.1000000000 0.1000000000 0.1000000000 0.1000000000 0.1000000000 0.1000000000 0.1000000000 0.1000000000 0.1000000000 0.1000000000 0.1000000000 0.1000000000 0.1000000000 0.1000000000 0.1000000000 0.1000000000 0.1000000000 0.1000000000 0.1000000000 0.1000000000 0.1000000000 0.1000000000 0.1000000000 0.1000000000 0.1000000000 0.1000000000 0.1000000000 0.1000000000 0.1000000000 0.1000000000 0.1000000000 0.1000000000 0.1000000000 0.1000000000 0.1000000000 0.1000000000 0.1000000000 0.1000000000 0.1000000000 0.1000000000 0.1000000000 0.1000000000 0.1000000000 0.1000000000 0.1000000000 0.1000000000 0.1000000000 0.1000000000 0.1000000000 0.1000000000 0.1000000000 0.1000000000 0.1000000000 0.1000000000 0.1000000000 0.1000000000 0.1000000000 0.1000000000 0.1000000000 0.1000000000 0.1000000000 0.1000000000 0.1000000000 0.1000000000 0.1000000000 0.1000000000 0.1000000000 0.1000000000 0.1000000000 0.1000000000 0.1000000000 0.1000000000 0.1000000000 0.1000000000 0.1000000000 0.1000000000 0.1000000000 0.1000000000 0.1000000000 0.1000000000 0.1000000000 0.1000000000 0.1000000000 0.1000000000 0.1000000000 0.1000000000 0.1000000000 0.1000000000 0.1000000000 0.1000000000 0.1000000000 0.1000000000 0.1000000000 0.1000000000 0.1000000000 0.1000000000 0.1000000000 0.1000000000 0.1000000000 0.1000000000 0.1000000000 0.1000000000 0.1000000000 0.1000000000 0.1000000000 0.1000000000 0.1000000000 0.1000000000 0.1000000000 0.1000000000 0.1000000000 0.1000000000 0.1000000000 0.1000000000 0.1000000000 0.1000000000 0.1000000000 0.1000000000 0.1000000000 0.1000000000 0.1000000000 0.1000000000 0.1000000000 0.1000000000 0.1000000000 0.1000000000 0.1000000000 0.1000000000 0.1000000000 0.1000000000 0.1000000000 0.1000000000 0.1000000000 0.1000000000 0.1000000000 0.1000000000 0.1000000000 0.1000000000 0.1000000000 0.1000000000 0.1000000000 0.1000000000 0.1000000000 0.1000000000 0.1000000000 0.1000000000 0.1000000000 0.1000000000 0.1000000000 0.1000000000 0.1000000000 0.1000000000 0.1000000000 0.1000000000 0.1000000000 0.1000000000 0.1000000000 0.1000000000 0.1000000000 0.1000000000 0.1000000000 0.1000000000 0.1000000000 0.1000000000 0.1000000000 0.1000000000 0.1000000000 0.1000000000 0.1000000000 0.1000000000 0.1000000000 0.1000000000 0.1000000000 0.1000000000 0.1000000000 0.1000000000 0.1000000000 0.1000000000 0.1000000000 0.1000000000 0.1000000000 0.1000000000 0.1000000000 0.1000000000 0.1000000000 0.1000000000 0.1000000000 0.1000000000 0.1000000000 0.1000000000 0.1000000000 0.1000000000 0.1000000000 0.1000000000 0.1000000000 0.1000000000 0.1000000000 0.1000000000 0.1000000000 0.1000000000 0.1000000000 0.1000000000 0.1000000000 0.1000000000 0.1000000000 0.1000000000 0.1000000000 0.1000000000 0.1000000000 0.1000000000 0.1000000000 0.1000000000 0.1000000000 0.1000000000 0.1000000000 0.1000000000 0.1000000000 0.1000000000 0.1000000000 0.1000000000 0.1000000000 0.1000000000 0.1000000000 0.1000000000 0.1000000000 0.1000000000 0.1000000000 0.1000000000 0.1000000000 0.1000000000 0.1000000000 0.1000000000 0.1000000000 0.1000000000 0.1000000000 0.1000000000 0.1000000000 0.1000000000 0.1000000000 0.1000000000 0.1000000000 0.1000000000 0.1000000000 0.1000000000 0.1000000000 0.1000000000 0.1000000000 0.1000000000 0.1000000000 0.1000000000 0.1000000000 0.1000000000 0.1000000000 0.1000000000 0.1000000000 0.1000000000 0.1000000000 0.1000000000 0.1000000000 0.1000000000 0.1000000000 0.1000000000 0.1000000000 0.1000000000 0.1000000000 0.1000000000 0.1000000000 0.1000000000 0.1000000000 0.1000000000 0.1000000000 0.1000000000 0.1000000000 0.1000000000 0.1000000000 0.1000000000 0.1000000000 0.1000000000 0.1000000000 0.1000000000 0.1000000000 0.1000000000 0.1000000000 0.1000000000 0.1000000000 0.1000000000 0.1000000000 0.1000000000 0.1000000000 0.1000000000 0.1000000000 0.1000000000 0.1000000000 0.1000000000 0.1000000000 0.1000000000 0.1000000000 0.1000000000 0.1000000000 0.1000000000 0.1000000000 0.1000000000 0.1000000000 0.1000000000 0.1000000000 0.1000000000 0.1000000000 0.1000000000 0.1000000000 0.1000000000 0.1000000000 0.1000000000 0.1000000000 0.1000000000 0.1000000000 0.1000000000 0.1000000000 0.1000000000 0.1000000000 0.1000000000 0.1000000000 0.1000000000 0.1000000000 0.1000000000 0.1000000000 0.1000000000 0.1000000000 0.1000000000 0.1000000000 0.1000000000 0.1000000000 0.1000000000 0.1000000000 0.1000000000 0.1000000000 0.1000000000 0.1000000000 0.1000000000 0.1000000000 0.1000000000 0.1000000000 0.1000000000 0.1000000000 0.1000000000 0.1000000000 0.1000000000 0.1000000000 0.1000000000 0.1000000000 0.1000000000 0.1000000000 0.1000000000 0.1000000000 0.1000000000 0.1000000000 0.1000000000 0.1000000000 0.1000000000 0.1000000000 0.1000000000 0.1000000000 0.1000000000 0.1000000000 0.1000000000 0.1000000000 0.1000000000 0.1000000000 0.1000000000 0.1000000000 0.1000000000 0.1000000000 0.1000000000 0.1000000000 0.1000000000 0.1000000000 0.1000000000 0.1000000000 0.1000000000 0.1000000000 0.1000000000 0.1000000000 0.1000000000 0.1000000000 0.1000000000 0.1000000000 0.1000000000 0.1000000000 0.1000000000 0.1000000000 0.1000000000 0.1000000000 0.1000000000 0.1000000000 0.1000000000 0.1000000000 0.1000000000 0.1000000000 0.1000000000 0.1000000000 0.1000000000 0.1000000000 0.1000000000 0.1000000000 0.1000000000 0.1000000000 0.1000000000 0.1000000000 0.1000000000 0.1000000000 0.1000000000 0.1000000000 0.1000000000 0.1000000000 0.1000000000 0.1000000000 0.1000000000 0.1000000000 0.1000000000 0.1000000000 0.1000000000 0.1000000000 0.1000000000 0.1000000000 0.1000000000 0.1000000000 0.1000000000 0.1000000000 0.1000000000 0.1000000000 0.1000000000 0.1000000000 0.1000000000 0.1000000000 0.1000000000 0.1000000000 0.1000000000 0.1000000000 0.1000000000 0.1000000000 0.1000000000 0.1000000000 0.1000000000 0.1000000000 0.1000000000 0.1000000000 0.1000000000 0.1000000000 0.1000000000 0.1000000000 0.1000000000 0.1000000000 0.1000000000 0.1000000000 0.1000000000 0.1000000000 0.1000000000 0.1000000000 0.1000000000 0.1000000000 0.1000000000 0.1000000000 0.1000000000 0.1000000000 0.1000000000 0.1000000000 0.1000000000 0.1000000000 0.1000000000 0.1000000000 0.1000000000 0.1000000000 0.1000000000 0.1000000000 0.1000000000 0.1000000000 0.1000000000 0.1000000000 0.1000000000 0.1000000000 0.1000000000 0.1000000000 0.1000000000 0.1000000000 0.1000000000 0.1000000000 0.1000000000 0.1000000000 0.1000000000 0.1000000000 0.1000000000 0.1000000000 0.1000000000 0.1000000000 0.1000000000 0.1000000000 0.1000000000 0.1000000000 0.1000000000 0.1000000000 0.1000000000 0.1000000000 0.1000000000 0.1000000000 0.1000000000 0.1000000000 0.1000000000 0.1000000000 0.1000000000 0.1000000000 0.1000000000 0.1000000000 0.1000000000 0.1000000000 0.1000000000 0.1000000000 0.1000000000 0.1000000000 0.1000000000 0.1000000000 0.1000000000 0.1000000000 0.1000000000 0.1000000000 0.1000000000 0.1000000000 0.1000000000 0.1000000000 0.1000000000 0.1000000000 0.1000000000 0.1000000000 0.1000000000 0.1000000000 0.1000000000 0.1000000000 0.1000000000 0.1000000000 0.1000000000 0.1000000000 0.1000000000 0.1000000000 0.1000000000 0.1000000000 0.1000000000 0.1000000000 0.1000000000 0.1000000000 0.1000000000 0.1000000000 0.1000000000 0.1000000000 0.1000000000 0.1000000000 0.1000000000 0.1000000000 0.1000000000 0.1000000000 0.1000000000 0.1000000000 0.1000000000 0.1000000000 0.1000000000 0.1000000000 0.1000000000 0.1000000000 0.1000000000 0.1000000000 0.1000000000 0.1000000000 0.1000000000 0.1000000000 0.1000000000 0.1000000000 0.1000000000 0.1000000000 0.1000000000 0.1000000000 0.1000000000 0.1000000000 0.1000000000 0.1000000000 0.1000000000 0.1000000000 0.1000000000 0.1000000000 0.1000000000 0.1000000000 0.1000000000 0.1000000000 0.1000000000 0.1000000000 0.1000000000 0.1000000000 0.1000000000 0.1000000000 0.1000000000 0.1000000000 0.1000000000 0.1000000000 0.1000000000 0.1000000000 0.1000000000 0.1000000000 0.1000000000 0.1000000000 0.1000000000 0.1000000000 0.1000000000 0.1000000000 0.1000000000 0.1000000000 0.1000000000 0.1000000000 0.1000000000 0.1000000000 0.1000000000 0.1000000000 0.1000000000 0.1000000000 0.1000000000 0.1000000000 0.1000000000 0.1000000000 0.1000000000 0.1000000000 0.1000000000 0.1000000000 0.1000000000 0.1000000000 0.1000000000 0.1000000000 0.1000000000 0.1000000000 0.1000000000 0.1000000000 0.1000000000 0.1000000000 0.1000000000 0.1000000000 0.1000000000 0.1000000000 0.1000000000 0.1000000000 0.1000000000 0.1000000000 0.1000000000 0.1000000000 0.1000000000 0.1000000000 0.1000000000 0.1000000000 0.1000000000 0.1000000000 0.1000000000 0.1000000000 0.1000000000 0.1000000000 0.1000000000 0.1000000000 0.1000000000 0.1000000000 0.1000000000 0.1000000000 0.1000000000 0.1000000000 0.1000000000 0.1000000000 0.1000000000 0.1000000000 0.1000000000 0.1000000000 0.1000000000 0.1000000000 0.1000000000 0.1000000000 0.1000000000 0.1000000000 0.1000000000 0.1000000000 0.1000000000 0.1000000000 0.1000000000 0.1000000000 0.1000000000 0.1000000000 0.1000000000 0.1000000000 0.1000000000 0.1000000000 0.1000000000 0.1000000000 0.1000000000 0.1000000000 0.1000000000 0.1000000000 0.1000000000 0.1000000000 0.1000000000 0.1000000000 0.1000000000 0.1000000000 0.1000000000 0.1000000000 0.1000000000 0.1000000000 0.1000000000 0.1000000000 0.1000000000 0.1000000000 0.1000000000 0.1000000000 0.1000000000 0.1000000000 0.1000000000 0.1000000000 0.1000000000 0.1000000000 0.1000000000 0.1000000000 0.1000000000 0.1000000000 0.1000000000 0.1000000000 0.1000000000 0.1000000000 0.1000000000 0.1000000000 0.1000000000 0.1000000000 0.1000000000 0.1000000000 0.1000000000 0.1000000000 0.1000000000 0.1000000000 0.1000000000 0.1000000000 0.1000000000 0.1000000000 0.1000000000 0.1000000000 0.1000000000 0.1000000000 0.1000000000 0.1000000000 0.1000000000 0.1000000000 0.1000000000 0.1000000000 0.1000000000 0.1000000000 0.1000000000 0.1000000000 0.1000000000 0.1000000000 0.1000000000 0.1000000000 0.1000000000 0.1000000000 0.1000000000 0.1000000000 0.1000000000 0.1000000000 0.1000000000 0.1000000000 0.1000000000 0.1000000000 0.1000000000 0.1000000000 0.1000000000 0.1000000000 0.1000000000 0.1000000000 0.1000000000 0.1000000000 0.1000000000 0.1000000000 0.1000000000 0.1000000000 0.1000000000 0.1000000000 0.1000000000 0.1000000000 0.1000000000 0.1000000000 0.1000000000 0.1000000000 0.1000000000 0.1000000000 0.1000000000 0.1000000000 0.1000000000 0.1000000000 0.1000000000 0.1000000000 0.1000000000 0.1000000000 0.1000000000 0.1000000000 0.1000000000 0.1000000000 0.1000000000 0.1000000000 0.1000000000 0.1000000000 0.1000000000 0.1000000000 0.1000000000 0.1000000000 0.1000000000 0.1000000000 0.1000000000 0.1000000000 0.1000000000 0.1000000000 0.1000000000 0.1000000000 0.1000000000 0.1000000000 0.1000000000 0.1000000000 0.1000000000 0.1000000000 0.1000000000 0.1000000000 0.1000000000 0.1000000000 0.1000000000 0.1000000000 0.1000000000 0.1000000000 0.1000000000 0.1000000000 0.1000000000 0.1000000000 0.1000000000 0.1000000000 0.1000000000 0.1000000000 0.1000000000 0.1000000000 0.1000000000 0.1000000000 0.1000000000 0.1000000000 0.1000000000 0.1000000000 0.1000000000 0.1000000000 0.1000000000 0.1000000000 0.1000000000 0.1000000000 0.1000000000 0.1000000000 0.1000000000 0.1000000000 0.1000000000 0.1000000000 0.1000000000 0.1000000000 0.1000000000 0.1000000000 0.1000000000 0.1000000000 0.1000000000 0.1000000000 0.1000000000 0.1000000000 0.1000000000 0.1000000000 0.1000000000 0.1000000000 0.1000000000 0.1000000000 0.1000000000 0.1000000000 0.1000000000 0.1000000000 0.1000000000 0.1000000000 0.1000000000 0.1000000000 0.1000000000 0.1000000000 0.1000000000 0.1000000000 0.1000000000 0.1000000000 0.1000000000 0.1000000000 0.10000000