<?xml version="1.0"?>
<VTKFile type="UnstructuredGrid" version="0.1" byte_order="LittleEndian">
  <UnstructuredGrid>
    <FieldData>
      <DataArray type="Float32" Name="TIME"  NumberOfTuples="1" format="ascii"> 3.7500000000 </DataArray>
      <DataArray type="Int32"   Name="STEP"  NumberOfTuples="1" format="ascii"> 937500 </DataArray>
    </FieldData>
    <Piece NumberOfPoints="11600" NumberOfCells="11600">
      <Points>
        <DataArray type="Float32" NumberOfComponents="3" format="ascii">
 -0.7086684857 -1.1468175956 0.0000038636 -0.5087528569 -1.1410088695 0.0000038664 -0.3088372237 -1.1352001407 0.0000038677 -0.1089215916 -1.1293914087 0.0000038613 0.0909940406 -1.1235826746 0.0000038559 0.2909096698 -1.1177739407 0.0000038501 0.4908252989 -1.1119652073 0.0000038454 0.6907409287 -1.1061564756 0.0000038396 0.8906565669 -1.1003477414 0.0000038293 1.0905721996 -1.0945390047 0.0000038000 1.2904878314 -1.0887302677 0.0000037601 1.4904034635 -1.0829215311 0.0000037128 1.6903190964 -1.0771127948 0.0000036622 1.8902347386 -1.0713040561 0.0000036073 2.0901503720 -1.0654953153 0.0000035468 2.2900660051 -1.0596865740 0.0000034819 2.4899816374 -1.0538778310 0.0000034106 2.6898972697 -1.0480690868 0.0000033305 2.8898128995 -1.0422603413 0.0000032328 3.0897285284 -1.0364515964 0.0000031238 3.2896441558 -1.0306428529 0.0000030135 3.4895597828 -1.0248341108 0.0000029063 3.6894754098 -1.0190253701 0.0000028065 3.8893910342 -1.0132166306 0.0000027200 4.0893066608 -1.0074078917 0.0000026645 4.2892222870 -1.0015991532 0.0000026241 4.4891379132 -0.9957904145 0.0000025969 4.6890535405 -0.9899816760 0.0000025793 4.8889691666 -0.9841729365 0.0000025626 5.0888847947 -0.9783641949 0.0000025512 5.2888004222 -0.9725554524 0.0000025350 5.4887160493 -0.9667467080 0.0000025087 5.6886316762 -0.9609379627 0.0000024712 5.8885472993 -0.9551292173 0.0000024205 6.0884629247 -0.9493204728 0.0000023576 6.2883785491 -0.9435117286 0.0000022903 6.4882941729 -0.9377029845 0.0000022188 6.6882097969 -0.9318942416 0.0000021436 6.8881254152 -0.9260855006 0.0000020680 7.0880410379 -0.9202767624 0.0000019849 7.2879566597 -0.9144680274 0.0000018995 7.4878722820 -0.9086592952 0.0000018141 7.6877879054 -0.9028505647 0.0000017326 7.8877035245 -0.8970418354 0.0000016584 8.0876191496 -0.8912331065 0.0000015933 8.2875347755 -0.8854243767 0.0000015320 8.4874504026 -0.8796156463 0.0000014725 8.6873660316 -0.8738069178 0.0000014113 8.8872816765 -0.8679981862 0.0000013380 9.0871973093 -0.8621894487 0.0000012471 9.2871129412 -0.8563807117 0.0000011411 9.4870285729 -0.8505719745 0.0000010187 9.6869442043 -0.8447632362 0.0000008817 9.8868598354 -0.8389544972 0.0000007312 10.0867754650 -0.8331457561 0.0000005699 10.2866910932 -0.8273370149 0.0000004084 10.4866067207 -0.8215282744 0.0000002480 10.6865223492 -0.8157195356 0.0000000876 10.8864379773 -0.8099107976 -0.0000000665 11.0863536079 -0.8041020590 -0.0000002407 11.2862692378 -0.7982933192 -0.0000004201 11.4861848680 -0.7924845788 -0.0000006027 11.6861004992 -0.7866758390 -0.0000007862 11.8860161323 -0.7808670984 -0.0000009479 12.0859317644 -0.7750583562 -0.0000011262 12.2858473996 -0.7692496138 -0.0000012844 12.4857630312 -0.7634408699 -0.0000014554 12.6856786632 -0.7576321266 -0.0000016258 12.8855942993 -0.7518233824 -0.0000017911 13.0855099330 -0.7460146377 -0.0000019618 13.2854255647 -0.7402058887 -0.0000021326 13.5537209459 -0.7165582576 0.0000000000 13.7537186006 -0.7175266864 0.0000000000 13.9537162552 -0.7184951149 0.0000000000 14.1537139125 -0.7194635429 0.0000000000 14.3537115673 -0.7204319718 0.0000000000 14.5537092232 -0.7214003999 0.0000000000 14.7537068790 -0.7223688287 0.0000000000 14.9537045340 -0.7233372571 0.0000000000 15.1537021907 -0.7243056856 0.0000000000 15.3536998457 -0.7252741142 0.0000000000 15.5536975019 -0.7262425427 0.0000000000 15.7536951577 -0.7272109707 0.0000000000 16.0707863500 -0.5402534858 -0.0000011425 16.2706367108 -0.5325183328 -0.0000017145 16.4704870684 -0.5247831805 -0.0000015156 16.6703374296 -0.5170480298 0.0000004824 16.8701877899 -0.5093128804 0.0000013686 17.0700381503 -0.5015777323 -0.0000003232 17.2698885127 -0.4938425861 -0.0000013694 17.4697388744 -0.4861074390 0.0000005782 17.6695892406 -0.4783722895 -0.0000011831 17.8694396061 -0.4706371379 -0.0000030829 18.0692899717 -0.4629019835 -0.0000018250 18.2691403384 -0.4551668265 0.0000003678 18.4689907046 -0.4474316701 -0.0000020954 18.6688410689 -0.4396965125 -0.0000010272 18.8686914316 -0.4319613570 0.0000011427 19.0685417945 -0.4242262024 0.0000002390 19.2683921568 -0.4164910475 -0.0000026959 -0.6137411767 -0.9707812226 0.0000037402 -0.4138255478 -0.9649724951 0.0000037456 -0.2139099163 -0.9591637644 0.0000037480 -0.0139942847 -0.9533550311 0.0000037460 0.1859213455 -0.9475462969 0.0000037423 0.3858369757 -0.9417375633 0.0000037380 0.5857526064 -0.9359288309 0.0000037328 0.7856682389 -0.9301200995 0.0000037224 0.9855838718 -0.9243113633 0.0000036988 1.1854995033 -0.9185026262 0.0000036628 1.3854151350 -0.9126938892 0.0000036172 1.5853307673 -0.9068851525 0.0000035665 1.7852464026 -0.9010764156 0.0000035123 1.9851620383 -0.8952676751 0.0000034530 2.1850776711 -0.8894589340 0.0000033894 2.3849933032 -0.8836501916 0.0000033200 2.5849089343 -0.8778414477 0.0000032427 2.7848245653 -0.8720327026 0.0000031539 2.9847401955 -0.8662239574 0.0000030510 3.1846558240 -0.8604152131 0.0000029432 3.3845714520 -0.8546064702 0.0000028370 3.5844870792 -0.8487977286 0.0000027374 3.7844027059 -0.8429889882 0.0000026507 3.9843183324 -0.8371802491 0.0000025890 4.1842339586 -0.8313715102 0.0000025475 4.3841495848 -0.8255627714 0.0000025217 4.5840652112 -0.8197540326 0.0000025081 4.7839808377 -0.8139452935 0.0000025021 4.9838964643 -0.8081365528 0.0000024984 5.1838120905 -0.8023278110 0.0000024915 5.3837277166 -0.7965190675 0.0000024758 5.5836433424 -0.7907103225 0.0000024477 5.7835589679 -0.7849015769 0.0000024062 5.9834745931 -0.7790928321 0.0000023485 6.1833902178 -0.7732840878 0.0000022808 6.3833058424 -0.7674753437 0.0000022065 6.5832214664 -0.7616665999 0.0000021266 6.7831370899 -0.7558578573 0.0000020422 6.9830527132 -0.7500491179 0.0000019530 7.1829683365 -0.7442403814 0.0000018609 7.3828839601 -0.7384316477 0.0000017684 7.5827995834 -0.7326229161 0.0000016790 7.7827152067 -0.7268141859 0.0000015966 7.9826308305 -0.7210054574 0.0000015246 8.1825464554 -0.7151967286 0.0000014604 8.3824620822 -0.7093879988 0.0000014006 8.5823777108 -0.7035792696 0.0000013414 8.7822933439 -0.6977705412 0.0000012762 8.9822089783 -0.6919618060 0.0000011950 9.1821246106 -0.6861530692 0.0000010971 9.3820402423 -0.6803443322 0.0000009815 9.5819558734 -0.6745355942 0.0000008481 9.7818715041 -0.6687268552 0.0000006984 9.9817871340 -0.6629181144 0.0000005339 10.1817027627 -0.6571093733 0.0000003649 10.3816183912 -0.6513006327 0.0000001960 10.5815340196 -0.6454918932 0.0000000275 10.7814496486 -0.6396831549 -0.0000001428 10.9813652780 -0.6338744167 -0.0000003223 11.1812809071 -0.6280656777 -0.0000005118 11.3811965371 -0.6222569378 -0.0000007077 11.5811121671 -0.6164481976 -0.0000009061 11.7810277987 -0.6106394577 -0.0000011017 11.9809434306 -0.6048307168 -0.0000012929 12.1808590632 -0.5990219748 -0.0000014795 12.3807746965 -0.5932132319 -0.0000016601 12.5806903283 -0.5874044888 -0.0000018385 12.7806059628 -0.5815957447 -0.0000020137 12.9805215956 -0.5757870007 -0.0000021862 13.1804372254 -0.5699782543 -0.0000023581 13.4545607995 -0.5428709962 0.0000000000 13.6545584562 -0.5438394230 0.0000000000 13.8545561119 -0.5448078513 0.0000000000 14.0545537676 -0.5457762802 0.0000000000 14.2545514232 -0.5467447085 0.0000000000 14.4545490789 -0.5477131372 0.0000000000 14.6545467344 -0.5486815658 0.0000000000 14.8545443900 -0.5496499941 0.0000000000 15.0545420460 -0.5506184231 0.0000000000 15.2545397016 -0.5515868510 0.0000000000 15.4545373576 -0.5525552794 0.0000000000 15.6545350106 -0.5535237101 0.0000000000 15.9641623308 -0.3710455732 -0.0000020410 16.1640126910 -0.3633104198 -0.0000006752 16.3638630520 -0.3555752665 -0.0000014206 16.5637134127 -0.3478401151 -0.0000018754 16.7635637735 -0.3401049653 -0.0000012690 16.9634141348 -0.3323698168 -0.0000017484 17.1632644964 -0.3246346695 -0.0000025885 17.3631148588 -0.3168995224 -0.0000016253 17.5629652217 -0.3091643749 -0.0000006235 17.7628155855 -0.3014292246 -0.0000010946 17.9626659494 -0.2936940720 -0.0000009255 18.1625163138 -0.2859589169 -0.0000000685 18.3623666800 -0.2782237598 -0.0000009511 18.5622170453 -0.2704886027 -0.0000021634 18.7620674092 -0.2627534464 -0.0000009799 18.9619177726 -0.2550182913 0.0000002006 19.1617681359 -0.2472831367 -0.0000003394 19.3616184982 -0.2395479816 -0.0000007011 -0.7187295001 -0.8005535767 0.0000036065 -0.5188138698 -0.7947448485 0.0000036167 -0.3188982388 -0.7889361189 0.0000036255 -0.1189826092 -0.7831273866 0.0000036301 0.0809330223 -0.7773186527 0.0000036311 0.2808486532 -0.7715099189 0.0000036300 0.4807642845 -0.7657011863 0.0000036266 0.6806799162 -0.7598924547 0.0000036188 0.8805955463 -0.7540837207 0.0000036001 1.0805111772 -0.7482749844 0.0000035674 1.2804268081 -0.7424662469 0.0000035245 1.4803424391 -0.7366575099 0.0000034741 1.6802580712 -0.7308487733 0.0000034197 1.8801737062 -0.7250400334 0.0000033612 2.0800893384 -0.7192312928 0.0000032982 2.2800049700 -0.7134225510 0.0000032305 2.4799206010 -0.7076138080 0.0000031556 2.6798362316 -0.7018050638 0.0000030720 2.8797518625 -0.6959963183 0.0000029758 3.0796674925 -0.6901875738 0.0000028714 3.2795831213 -0.6843788302 0.0000027668 3.4794987492 -0.6785700878 0.0000026676 3.6794143767 -0.6727613467 0.0000025788 3.8793300027 -0.6669526065 0.0000025106 4.0792456296 -0.6611438672 0.0000024670 4.2791612562 -0.6553351281 0.0000024412 4.4790768827 -0.6495263890 0.0000024306 4.6789925096 -0.6437176496 0.0000024305 4.8789081342 -0.6379089094 0.0000024362 5.0788237606 -0.6321001675 0.0000024393 5.2787393863 -0.6262914245 0.0000024346 5.4786550118 -0.6204826803 0.0000024176 5.6785706376 -0.6146739353 0.0000023866 5.8784862612 -0.6088
[...]
      <PointData Scalars="radius">
        <DataArray type="Float32" Name="radius" format="ascii">
 0.1000000000 0.1000000000 0.1000000000 0.1000000000 0.1000000000 0.1000000000 0.1000000000 0.1000000000 0.1000000000 0.1000000000 0.1000000000 0.1000000000 0.1000000000 0.1000000000 0.1000000000 0.1000000000 0.1000000000 0.1000000000 0.1000000000 0.1000000000 0.1000000000 0.1000000000 0.1000000000 0.1000000000 0.1000000000 0.1000000000 0.1000000000 0.1000000000 0.1000000000 0.1000000000 0.1000000000 0.1000000000 0.1000000000 0.1000000000 0.1000000000 0.1000000000 0.1000000000 0.1000000000 0.1000000000 0.1000000000 0.1000000000 0.1000000000 0.1000000000 0.1000000000 0.1000000000 0.1000000000 0.1000000000 0.1000000000 0.1000000000 0.1000000000 0.1000000000 0.1000000000 0.1000000000 0.1000000000 0.1000000000 0.1000000000 0.1000000000 0.1000000000 0.1000000000 0.1000000000 0.1000000000 0.1000000000 0.1000000000 0.1000000000 0.1000000000 0.1000000000 0.1000000000 0.1000000000 0.1000000000 0.1000000000 0.1000000000 0.1000000000 0.1000000000 0.1000000000 0.1000000000 0.1000000000 0.1000000000 0.1000000000 0.1000000000 0.1000000000 0.1000000000 0.1000000000 0.1000000000 0.1000000000 0.1000000000 0.1000000000 0.1000000000 0.1000000000 0.1000000000 0.1000000000 0.1000000000 0.1000000000 0.1000000000 0.1000000000 0.1000000000 0.1000000000 0.1000000000 0.1000000000 0.1000000000 0.1000000000 0.1000000000 0.1000000000 0.1000000000 0.1000000000 0.1000000000 0.1000000000 0.1000000000 0.1000000000 0.1000000000 0.1000000000 0.1000000000 0.1000000000 0.1000000000 0.1000000000 0.1000000000 0.1000000000 0.1000000000 0.1000000000 0.1000000000 0.1000000000 0.1000000000 0.1000000000 0.1000000000 0.1000000000 0.1000000000 0.1000000000 0.1000000000 0.1000000000 0.1000000000 0.1000000000 0.1000000000 0.1000000000 0.1000000000 0.1000000000 0.1000000000 0.1000000000 0.1000000000 0.1000000000 0.1000000000 0.1000000000 0.1000000000 0.1000000000 0.1000000000 0.1000000000 0.1000000000 0.1000000000 0.1000000000 0.1000000000 0.1000000000 0.1000000000 0.1000000000 0.1000000000 0.1000000000 0.1000000000 0.1000000000 0.1000000000 0.1000000000 0.1000000000 0.1000000000 0.1000000000 0.1000000000 0.1000000000 0.1000000000 0.1000000000 0.1000000000 0.1000000000 0.1000000000 0.1000000000 0.1000000000 0.1000000000 0.1000000000 0.1000000000 0.1000000000 0.1000000000 0.1000000000 0.1000000000 0.1000000000 0.1000000000 0.1000000000 0.1000000000 0.1000000000 0.1000000000 0.1000000000 0.1000000000 0.1000000000 0.1000000000 0.1000000000 0.1000000000 0.1000000000 0.1000000000 0.1000000000 0.1000000000 0.1000000000 0.1000000000 0.1000000000 0.1000000000 0.1000000000 0.1000000000 0.1000000000 0.1000000000 0.1000000000 0.1000000000 0.1000000000 0.1000000000 0.1000000000 0.1000000000 0.1000000000 0.1000000000 0.1000000000 0.1000000000 0.1000000000 0.1000000000 0.1000000000 0.1000000000 0.1000000000 0.1000000000 0.1000000000 0.1000000000 0.1000000000 0.1000000000 0.1000000000 0.1000000000 0.1000000000 0.1000000000 0.1000000000 0.1000000000 0.1000000000 0.1000000000 0.1000000000 0.1000000000 0.1000000000 0.1000000000 0.1000000000 0.1000000000 0.1000000000 0.1000000000 0.1000000000 0.1000000000 0.1000000000 0.1000000000 0.1000000000 0.1000000000 0.1000000000 0.1000000000 0.1000000000 0.1000000000 0.1000000000 0.1000000000 0.1000000000 0.1000000000 0.1000000000 0.1000000000 0.1000000000 0.1000000000 0.1000000000 0.1000000000 0.1000000000 0.1000000000 0.1000000000 0.1000000000 0.1000000000 0.1000000000 0.1000000000 0.1000000000 0.1000000000 0.1000000000 0.1000000000 0.1000000000 0.1000000000 0.1000000000 0.1000000000 0.1000000000 0.1000000000 0.1000000000 0.1000000000 0.1000000000 0.1000000000 0.1000000000 0.1000000000 0.1000000000 0.1000000000 0.1000000000 0.1000000000 0.1000000000 0.1000000000 0.1000000000 0.1000000000 0.1000000000 0.1000000000 0.1000000000 0.1000000000 0.1000000000 0.1000000000 0.1000000000 0.1000000000 0.1000000000 0.1000000000 0.1000000000 0.1000000000 0.1000000000 0.1000000000 0.1000000000 0.1000000000 0.1000000000 0.1000000000 0.1000000000 0.1000000000 0.1000000000 0.1000000000 0.1000000000 0.1000000000 0.1000000000 0.1000000000 0.1000000000 0.1000000000 0.1000000000 0.1000000000 0.1000000000 0.1000000000 0.1000000000 0.1000000000 0.1000000000 0.1000000000 0.1000000000 0.1000000000 0.1000000000 0.1000000000 0.1000000000 0.1000000000 0.1000000000 0.1000000000 0.1000000000 0.1000000000 0.1000000000 0.1000000000 0.1000000000 0.1000000000 0.1000000000 0.1000000000 0.1000000000 0.1000000000 0.1000000000 0.1000000000 0.1000000000 0.1000000000 0.1000000000 0.1000000000 0.1000000000 0.1000000000 0.1000000000 0.1000000000 0.1000000000 0.1000000000 0.1000000000 0.1000000000 0.1000000000 0.1000000000 0.1000000000 0.1000000000 0.1000000000 0.1000000000 0.1000000000 0.1000000000 0.1000000000 0.1000000000 0.1000000000 0.1000000000 0.1000000000 0.1000000000 0.1000000000 0.1000000000 0.1000000000 0.1000000000 0.1000000000 0.1000000000 0.1000000000 0.1000000000 0.1000000000 0.1000000000 0.1000000000 0.1000000000 0.1000000000 0.1000000000 0.1000000000 0.1000000000 0.1000000000 0.1000000000 0.1000000000 0.1000000000 0.1000000000 0.1000000000 0.1000000000 0.1000000000 0.1000000000 0.1000000000 0.1000000000 0.1000000000 0.1000000000 0.1000000000 0.1000000000 0.1000000000 0.1000000000 0.1000000000 0.1000000000 0.1000000000 0.1000000000 0.1000000000 0.1000000000 0.1000000000 0.1000000000 0.1000000000 0.1000000000 0.1000000000 0.1000000000 0.1000000000 0.1000000000 0.1000000000 0.1000000000 0.1000000000 0.1000000000 0.1000000000 0.1000000000 0.1000000000 0.1000000000 0.1000000000 0.1000000000 0.1000000000 0.1000000000 0.1000000000 0.1000000000 0.1000000000 0.1000000000 0.1000000000 0.1000000000 0.1000000000 0.1000000000 0.1000000000 0.1000000000 0.1000000000 0.1000000000 0.1000000000 0.1000000000 0.1000000000 0.1000000000 0.1000000000 0.1000000000 0.1000000000 0.1000000000 0.1000000000 0.1000000000 0.1000000000 0.1000000000 0.1000000000 0.1000000000 0.1000000000 0.1000000000 0.1000000000 0.1000000000 0.1000000000 0.1000000000 0.1000000000 0.1000000000 0.1000000000 0.1000000000 0.1000000000 0.1000000000 0.1000000000 0.1000000000 0.1000000000 0.1000000000 0.1000000000 0.1000000000 0.1000000000 0.1000000000 0.1000000000 0.1000000000 0.1000000000 0.1000000000 0.1000000000 0.1000000000 0.1000000000 0.1000000000 0.1000000000 0.1000000000 0.1000000000 0.1000000000 0.1000000000 0.1000000000 0.1000000000 0.1000000000 0.1000000000 0.1000000000 0.1000000000 0.1000000000 0.1000000000 0.1000000000 0.1000000000 0.1000000000 0.1000000000 0.1000000000 0.1000000000 0.1000000000 0.1000000000 0.1000000000 0.1000000000 0.1000000000 0.1000000000 0.1000000000 0.1000000000 0.1000000000 0.1000000000 0.1000000000 0.1000000000 0.1000000000 0.1000000000 0.1000000000 0.1000000000 0.1000000000 0.1000000000 0.1000000000 0.1000000000 0.1000000000 0.1000000000 0.1000000000 0.1000000000 0.1000000000 0.1000000000 0.1000000000 0.1000000000 0.1000000000 0.1000000000 0.1000000000 0.1000000000 0.1000000000 0.1000000000 0.1000000000 0.1000000000 0.1000000000 0.1000000000 0.1000000000 0.1000000000 0.1000000000 0.1000000000 0.1000000000 0.1000000000 0.1000000000 0.1000000000 0.1000000000 0.1000000000 0.1000000000 0.1000000000 0.1000000000 0.1000000000 0.1000000000 0.1000000000 0.1000000000 0.1000000000 0.1000000000 0.1000000000 0.1000000000 0.1000000000 0.1000000000 0.1000000000 0.1000000000 0.1000000000 0.1000000000 0.1000000000 0.1000000000 0.1000000000 0.1000000000 0.1000000000 0.1000000000 0.1000000000 0.1000000000 0.1000000000 0.1000000000 0.1000000000 0.1000000000 0.1000000000 0.1000000000 0.1000000000 0.1000000000 0.1000000000 0.1000000000 0.1000000000 0.1000000000 0.1000000000 0.1000000000 0.1000000000 0.1000000000 0.1000000000 0.1000000000 0.1000000000 0.1000000000 0.1000000000 0.1000000000 0.1000000000 0.1000000000 0.1000000000 0.1000000000 0.1000000000 0.1000000000 0.1000000000 0.1000000000 0.1000000000 0.1000000000 0.1000000000 0.1000000000 0.1000000000 0.1000000000 0.1000000000 0.1000000000 0.1000000000 0.1000000000 0.1000000000 0.1000000000 0.1000000000 0.1000000000 0.1000000000 0.1000000000 0.1000000000 0.1000000000 0.1000000000 0.1000000000 0.1000000000 0.1000000000 0.1000000000 0.1000000000 0.1000000000 0.1000000000 0.1000000000 0.1000000000 0.1000000000 0.1000000000 0.1000000000 0.1000000000 0.1000000000 0.1000000000 0.1000000000 0.1000000000 0.1000000000 0.1000000000 0.1000000000 0.1000000000 0.1000000000 0.1000000000 0.1000000000 0.1000000000 0.1000000000 0.1000000000 0.1000000000 0.1000000000 0.1000000000 0.1000000000 0.1000000000 0.1000000000 0.1000000000 0.1000000000 0.1000000000 0.1000000000 0.1000000000 0.1000000000 0.1000000000 0.1000000000 0.1000000000 0.1000000000 0.1000000000 0.1000000000 0.1000000000 0.1000000000 0.1000000000 0.1000000000 0.1000000000 0.1000000000 0.1000000000 0.1000000000 0.1000000000 0.1000000000 0.1000000000 0.1000000000 0.1000000000 0.1000000000 0.1000000000 0.1000000000 0.1000000000 0.1000000000 0.1000000000 0.1000000000 0.1000000000 0.1000000000 0.1000000000 0.1000000000 0.1000000000 0.1000000000 0.1000000000 0.1000000000 0.1000000000 0.1000000000 0.1000000000 0.1000000000 0.1000000000 0.1000000000 0.1000000000 0.1000000000 0.1000000000 0.1000000000 0.1000000000 0.1000000000 0.1000000000 0.1000000000 0.1000000000 0.1000000000 0.1000000000 0.1000000000 0.1000000000 0.1000000000 0.1000000000 0.1000000000 0.1000000000 0.1000000000 0.1000000000 0.1000000000 0.1000000000 0.1000000000 0.1000000000 0.1000000000 0.1000000000 0.1000000000 0.1000000000 0.1000000000 0.1000000000 0.1000000000 0.1000000000 0.1000000000 0.1000000000 0.1000000000 0.1000000000 0.1000000000 0.1000000000 0.1000000000 0.1000000000 0.1000000000 0.1000000000 0.1000000000 0.1000000000 0.1000000000 0.1000000000 0.1000000000 0.1000000000 0.1000000000 0.1000000000 0.1000000000 0.1000000000 0.1000000000 0.1000000000 0.1000000000 0.1000000000 0.1000000000 0.1000000000 0.1000000000 0.1000000000 0.1000000000 0.1000000000 0.1000000000 0.1000000000 0.1000000000 0.1000000000 0.1000000000 0.1000000000 0.1000000000 0.1000000000 0.1000000000 0.1000000000 0.1000000000 0.1000000000 0.1000000000 0.1000000000 0.1000000000 0.1000000000 0.1000000000 0.1000000000 0.1000000000 0.1000000000 0.1000000000 0.1000000000 0.1000000000 0.1000000000 0.1000000000 0.1000000000 0.1000000000 0.1000000000 0.1000000000 0.1000000000 0.1000000000 0.1000000000 0.1000000000 0.1000000000 0.1000000000 0.1000000000 0.1000000000 0.1000000000 0.1000000000 0.1000000000 0.1000000000 0.1000000000 0.1000000000 0.1000000000 0.1000000000 0.1000000000 0.1000000000 0.1000000000 0.1000000000 0.1000000000 0.1000000000 0.1000000000 0.1000000000 0.1000000000 0.1000000000 0.1000000000 0.1000000000 0.1000000000 0.1000000000 0.1000000000 0.1000000000 0.1000000000 0.1000000000 0.1000000000 0.1000000000 0.1000000000 0.1000000000 0.1000000000 0.1000000000 0.1000000000 0.1000000000 0.1000000000 0.1000000000 0.1000000000 0.1000000000 0.1000000000 0.1000000000 0.1000000000 0.1000000000 0.1000000000 0.1000000000 0.1000000000 0.1000000000 0.1000000000 0.1000000000 0.1000000000 0.1000000000 0.1000000000 0.1000000000 0.1000000000 0.1000000000 0.1000000000 0.1000000000 0.1000000000 0.1000000000 0.1000000000 0.1000000000 0.1000000000 0.1000000000 0.1000000000 0.1000000000 0.1000000000 0.1000000000 0.1000000000 0.1000000000 0.1000000000 0.1000000000 0.1000000000 0.1000000000 0.1000000000 0.1000000000 0.1000000000 0.1000000000 0.1000000000 0.1000000000 0.1000000000 0.1000000000 0.1000000000 0.1000000000 0.1000000000 0.1000000000 0.1000000000 0.1000000000 0.1000000000 0.1000000000 0.1000000000 0.1000000000 0.1000000000 0.1000000000 0.1000000000 0.1000000000 0.1000000000 0.1000000000 0.1000000000 0.1000000000 0.1000000000 0.1000000000 0.1000000000 0.1000000000 0.1000000000 0.1000000000 0.1000000000 0.1000000000 0.1000000000 0.1000000000 0.1000000000 0.1000000000 0.1000000000 0.1000000000 0.1000000000 0.1000000000 0.1000000000 0.1000000000 0.1000000000 0.1000000000 0.1000000000 0.1000000000 0.1000000000 0.1000000000 0.1000000000 0.1000000000 0.1000000000 0.1000000000 0.1000000000 0.1000000000 0.1000000000 0.1000000000 0.1000000000 0.1000000000 0.1000000000 0.1000000000 0.1000000000 0.1000000000 0.1000000000 0.1000000000 0.1000000000 0.1000000000 0.1000000000 0.1000000000 0.1000000000 0.1000000000 0.1000000000 0.1000000000 0.1000000000 0.1000000000 0.1000000000 0.1000000000 0.1000000000 0.1000000000 0.1000000000 0.1000000000 0.1000000000 0.1000000000 0.1000000000 0.1000000000 0.1000000000 0.1000000000 0.1000000000 0.1000000000 0.1000000000 0.1000000000 0.1000000000 0.1000000000 0.1000000000 0.1000000000 0.1000000000 0.1000000000 0.1000000000 0.1000000000 0.1000000000 0.1000000000 0.1000000000 0.1000000000 0.1000000000 0.1000000000 0.1000000000 0.1000000000 0.1000000000 0.1000000000 0.1000000000 0.1000000000 0.1000000000 0.1000000000 0.1000000000 0.1000000000 0.1000000000 0.1000000000 0.1000000000 0.1000000000 0.1000000000 0.1000000000 0.1000000000 0.1000000000 0.1000000000 0.1000000000 0.1000000000 0.1000000000 0.1000000000 0.1000000000 0.1000000000 0.1000000000 0.1000000000 0.1000000000 0.1000000000 0.1000000000 0.1000000000 0.1000000000 0.1000000000 0.1000000000 0.1000000000 0.1000000000 0.1000000000 0.1000000000 0.1000000000 0.1000000000 0.1000000000 0.1000000000 0.1000000000 0.1000000000 0.1000000000 0.1000000000 0.1000000000 0.1000000000 0.1000000000 0.1000000000 0.1000000000 0.1000000000 0.1000000000 0.1000000000 0.1000000000 0.1000000000 0.1000000000 0.1000000000 0.1000000000 0.1000000000 0.1000000000 0.1000000000 0.1000000000 0.1000000000 0.1000000000 0.1000000000 0.1000000000 0.1000000000 0.1000000000 0.1000000000 0.1000000000 0.1000000000 0.1000000000 0.1000000000 0.1000000000 0.1000000000 0.1000000000 0.1000000000 0.1000000000 0.1000000000 0.1000000000 0.1000000000 0.1000000000 0.1000000000 0.1000000000 0.1000000000 0.1000000000 0.1000000000 0.1000000000 0.1000000000 0.1000000000 0.1000000000 0.1000000000 0.1000000000 0.1000000000 0.1000000000 0.1000000000 0.1000000000 0.1000000000 0.1000000000 0.1000000000 0.1000000000 0.1000000000 0.1000000000 0.1000000000 0.1000000000 0.1000000000 0.1000000000 0.1000000000 0.1000000000 0.1000000000 0.1000000000 0.1000000000 0.1000000000 0.1000000000 0.1000000000 0.1000000000 0.1000000000 0.1000000000 0.1000000000 0.1000000000 0.1000000000 0.1000000000 0.1000000000 0.1000000000 0.1000000000 0.1000000000 0.1000000000 0.1000000000 0.1000000000 0.1000000000 0.1000000000 0.1000000000 0.1000000000 0.1000000000 0.1000000000 0.1000000000 0.1000000000 0.1000000000 0.1000000000 0.1000000000 0.1000000000 0.1000000000 0.1000000000 0.1000000000 0.1000000000 0.1000000000 0.1000000000 0.1000000000 0.1000000000 0.1000000000 0.1000000000 0.1000000000 0.1000000000 0.1000000000 0.1000000000 0.1000000000 0.1000000000 0.1000000000 0.1000000000 0.1000000000 0.1000000000 0.1000000000 0.1000000000 0.1000000000 0.1000000000 0.1000000000 0.1000000000 0.1000000000 0.1000000000 0.1000000000 0.1000000000 0.1000000000 0.1000000000 0.1000000000 0.1000000000 0.1000000000 0.1000000000 0.1000000000 0.1000000000 0.1000000000 0.1000000000 0.1000000000 0.1000000000 0.1000000000 0.1000000000 0.1000000000 0.1000000000 0.1000000000 0.1000000000 0.1000000000 0.1000000000 0.1000000000 0.1000000000 0.1000000000 0.1000000000 0.1000000000 0.1000000000 0.1000000000 0.1000000000 0.1000000000 0.1000000000 0.1000000000 0.1000000000 0.1000000000 0.1000000000 0.1000000000 0.1000000000 0.1000000000 0.1000000000 0.1000000000 0.1000000000 0.1000000000 0.1000000000 0.1000000000 0.1000000000 0.1000000000 0.1000000000 0.1000000000 0.1000000000 0.1000000000 0.1000000000 0.1000000000 0.1000000000 0.1000000000 0.1000000000 0.1000000000 0.1000000000 0.1000000000 0.1000000000 0.1000000000 0.1000000000 0.1000000000 0.1000000000 0.1000000000 0.1000000000 0.1000000000 0.1000000000 0.1000000000 0.1000000000 0.1000000000 0.1000000000 0.1000000000 0.1000000000 0.1000000000 0.1000000000 0.1000000000 0.1000000000 0.1000000000 0.1000000000 0.1000000000 0.1000000000 0.1000000000 0.1000000000 0.1000000000 0.1000000000 0.1000000000 0.1000000000 0.1000000000 0.1000000000 0.1000000000 0.1000000000 0.1000000000 0.1000000000 0.1000000000 0.1000000000 0.1000000000 0.1000000000 0.1000000000 0.1000000000 0.1000000000 0.1000000000 0.1000000000 0.1000000000 0.1000000000 0.1000000000 0.1000000000 0.1000000000 0.1000000000 0.1000000000 0.1000000000 0.1000000000 0.1000000000 0.1000000000 0.1000000000 0.1000000000 0.1000000000 0.1000000000 0.1000000000 0.1000000000 0.1000000000 0.1000000000 0.1000000000 0.1000000000 0.1000000000 0.1000000000 0.1000000000 0.1000000000 0.1000000000 0.1000000000 0.1000000000 0.1000000000 0.1000000000 0.1000000000 0.1000000000 0.1000000000 0.1000000000 0.1000000000 0.1000000000 0.1000000000 0.1000000000 0.1000000000 0.1000000000 0.1000000000 0.1000000000 0.1000000000 0.1000000000 0.1000000000 0.1000000000 0.1000000000 0.1000000000 0.1000000000 0.1000000000 0.1000000000 0.1000000000 0.1000000000 0.1000000000 0.1000000000 0.1000000000 0.1000000000 0.1000000000 0.1000000000 0.1000000000 0.1000000000 0.1000000000 0.1000000000 0.1000000000 0.1000000000 0.1000000000 0.1000000000 0.1000000000 0.1000000000 0.1000000000 0.1000000000 0.1000000000 0.1000000000 0.1000000000 0.1000000000 0.1000000000 0.1000000000 0.1000000000 0.1000000000 0.1000000000 0.1000000000 0.1000000000 0.1000000000 0.1000000000 0.1000000000 0.1000000000 0.1000000000 0.1000000000 0.1000000000 0.1000000000 0.1000000000 0.1000000000 0.1000000000 0.1000000000 0.1000000000 0.1000000000 0.1000000000 0.1000000000 0.1000000000 0.1000000000 0.1000000000 0.1000000000 0.1000000000 0.1000000000 0.1000000000 0.1000000000 0.1000000000 0.1000000000 0.1000000000 0.1000000000 0.1000000000 0.1000000000 0.1000000000 0.1000000000 0.1000000000 0.1000000000 0.1000000000 0.1000000000 0.1000000000 0.1000000000 0.1000000000 0.1000000000 0.1000000000 0.1000000000 0.1000000000 0.1000000000 0.1000000000 0.1000000000 0.1000000000 0.1000000000 0.1000000000 0.1000000000 0.1000000000 0.1000000000 0.1000000000 0.1000000000 0.1000000000 0.1000000000 0.1000000000 0.1000000000 0.1000000000 0.1000000000 0.1000000000 0.1000000000 0.1000000000 0.1000000000 0.1000000000 0.1000000000 0.1000000000 0.1000000000 0.1000000000 0.1000000000 0.1000000000 0.1000000000 0.1000000000 0.1000000000 0.1000000000 0.1000000000 0.1000000000 0.1000000000 0.1000000000 0.1000000000 0.1000000000 0.1000000000 0.1000000000 0.1000000000 0.1000000000 0.1000000000 0.1000000000 0.1000000000 0.1000000000 0.1000000000 0.1000000000 0.1000000000 0.1000000000 0.1000000000 0.1000000000 0.1000000000 0.1000000000 0.1000000000 0.1000000000 0.1000000000 0.1000000000 0.1000000000 0.1000000000 0.1000000000 0.1000000000 0.1000000000 0.1000000000 0.1000000000 0.1000000000 0.1000000000 0.1000000000 0.1000000000 0.1000000000 0.1000000000 0.1000000000 0.1000000000 0.1000000000 0.1000000000 0.1000000000 0.1000000000 0.1000000000 0.1000000000 0.1000000000 0.1000000000 0.1000000000 0.1000000000 0.1000000000 0.1000000000 0.1000000000 0.1000000000 0.1000000000 0.1000000000 0.1000000000 0.1000000000 0.1000000000 0.1000000000 0.1000000000 0.1000000000 0.1000000000 0.1000000000 0.1000000000 0.1000000000 0.1000000000 0.1000000000 0.1000000000 0.1000000000 0.1000000000 0.1000000000 0.1000000000 0.1000000000 0.1000000000 0.1000000000 0.1000000000 0.1000000000 0.1000000000 0.1000000000 0.1000000000 0.1000000000 0.1000000000 0.1000000000 0.1000000000 0.1000000000 0.1000000000 0.1000000000 0.1000000000 0.1000000000 0.1000000000 0.1000000000 0.1000000000 0.1000000000 0.1000000000 0.1000000000 0.1000000000 0.1000000000 0.1000000000 0.1000000000 0.1000000000 0.1000000000 0.1000000000 0.1000000000 0.1000000000 0.1000000000 0.1000000000 0.1000000000 0.1000000000 0.1000000000 0.1000000000 0.1000000000 0.1000000000 0.1000000000 0.1000000000 0.1000000000 0.1000000000 0.1000000000 0.1000000000 0.1000000000 0.1000000000 0.10000000