<?xml version="1.0"?>
<VTKFile type="UnstructuredGrid" version="0.1" byte_order="LittleEndian">
  <UnstructuredGrid>
    <FieldData>
      <DataArray type="Float32" Name="TIME"  NumberOfTuples="1" format="ascii"> 2.6000000000 </DataArray>
      <DataArray type="Int32"   Name="STEP"  NumberOfTuples="1" format="ascii"> 650000 </DataArray>
    </FieldData>
    <Piece NumberOfPoints="11600" NumberOfCells="11600">
      <Points>
        <DataArray type="Float32" NumberOfComponents="3" format="ascii">
 -0.4565772374 -0.8488906811 -0.0000014392 -0.2566269475 -0.8444318508 -0.0000014730 -0.0566766544 -0.8399730203 -0.0000015075 0.1432736364 -0.8355141893 -0.0000015469 0.3432239300 -0.8310553579 -0.0000015802 0.5431742219 -0.8265965266 -0.0000016101 0.7431245139 -0.8221376951 -0.0000016341 0.9430748069 -0.8176788638 -0.0000016501 1.1430251012 -0.8132200315 -0.0000016537 1.3429753942 -0.8087611986 -0.0000016354 1.5429256861 -0.8043023657 -0.0000016044 1.7428759781 -0.7998435328 -0.0000015600 1.9428262706 -0.7953846998 -0.0000015033 2.1427765625 -0.7909258666 -0.0000014255 2.3427268548 -0.7864670332 -0.0000013359 2.5426771462 -0.7820082000 -0.0000012382 2.7426274372 -0.7775493665 -0.0000011340 2.9425777288 -0.7730905330 -0.0000010261 3.1425280189 -0.7686316991 -0.0000009092 3.3424783101 -0.7641728654 -0.0000008006 3.5424286004 -0.7597140318 -0.0000006945 3.7423788909 -0.7552551981 -0.0000005929 3.9423291817 -0.7507963648 -0.0000004969 4.1422794714 -0.7463375315 -0.0000004065 4.3422297621 -0.7418786980 -0.0000003337 4.5421800524 -0.7374198649 -0.0000002693 4.7421303427 -0.7329610316 -0.0000002137 4.9420806333 -0.7285021986 -0.0000001663 5.1420309225 -0.7240433654 -0.0000001256 5.3419812129 -0.7195845322 -0.0000000995 5.5419315028 -0.7151256995 -0.0000000790 5.7418817927 -0.7106668666 -0.0000000640 5.9418320833 -0.7062080339 -0.0000000540 6.1417823727 -0.7017492008 -0.0000000474 6.3417326634 -0.6972903676 -0.0000000495 6.5416829537 -0.6928315344 -0.0000000549 6.7416332441 -0.6883727013 -0.0000000639 6.9415835352 -0.6839138685 -0.0000000763 7.1415338254 -0.6794550350 -0.0000000943 7.3414841168 -0.6749962010 -0.0000001152 7.5414344076 -0.6705373671 -0.0000001371 7.7413846984 -0.6660785331 -0.0000001582 7.9413349901 -0.6616196993 -0.0000001773 8.1412852812 -0.6571608652 -0.0000001928 8.3412355731 -0.6527020307 -0.0000002025 8.5411858640 -0.6482431965 -0.0000002104 8.7411361551 -0.6437843621 -0.0000002173 8.9410864471 -0.6393255278 -0.0000002244 9.1410367378 -0.6348666938 -0.0000002364 9.3409870297 -0.6304078594 -0.0000002505 9.5409373206 -0.6259490254 -0.0000002693 9.7408876118 -0.6214901913 -0.0000002938 9.9408379036 -0.6170313570 -0.0000003238 10.1407881951 -0.6125725226 -0.0000003690 10.3407384869 -0.6081136880 -0.0000004149 10.5406887782 -0.6036548535 -0.0000004640 10.7406390694 -0.5991960188 -0.0000005149 10.9405893618 -0.5947371842 -0.0000005663 11.1405396540 -0.5902783490 -0.0000006192 11.3404899465 -0.5858195132 -0.0000006641 11.5404402378 -0.5813606774 -0.0000007040 11.7403905292 -0.5769018414 -0.0000007374 11.9403408218 -0.5724430053 -0.0000007636 12.1402911129 -0.5679841686 -0.0000007761 12.3402414055 -0.5635253317 -0.0000007811 12.5401916965 -0.5590664953 -0.0000007751 12.7401419885 -0.5546076574 -0.0000007664 12.9400922808 -0.5501488205 -0.0000007555 13.1400425716 -0.5456899828 -0.0000007410 13.3399928658 -0.5412311446 -0.0000007271 13.5399431563 -0.5367723040 -0.0000007120 13.7829637439 -0.5212244707 0.0000000000 13.9829619251 -0.5220772677 0.0000000000 14.1829601062 -0.5229300644 0.0000000000 14.3829582900 -0.5237828606 0.0000000000 14.5829564712 -0.5246356577 0.0000000000 14.7829546536 -0.5254884541 0.0000000000 14.9829528359 -0.5263412511 0.0000000000 15.1829510173 -0.5271940477 0.0000000000 15.3829492006 -0.5280468444 0.0000000000 15.5829473820 -0.5288996413 0.0000000000 15.7829455647 -0.5297524380 0.0000000000 15.9829437470 -0.5306052343 0.0000000000 16.2664590619 -0.3929131470 -0.0000000082 16.4663797490 -0.3872811934 -0.0000000073 16.6663004347 -0.3816492406 -0.0000000064 16.8662211227 -0.3760172876 -0.0000000055 17.0661418093 -0.3703853350 -0.0000000047 17.2660624960 -0.3647533823 -0.0000000040 17.4659831839 -0.3591214298 -0.0000000035 17.6659038702 -0.3534894773 -0.0000000031 17.8658245581 -0.3478575246 -0.0000000029 18.0657452450 -0.3422255719 -0.0000000028 18.2656659318 -0.3365936191 -0.0000000027 18.4655866201 -0.3309616665 -0.0000000025 18.6655073062 -0.3253297140 -0.0000000022 18.8654279946 -0.3196977609 -0.0000000016 19.0653486815 -0.3140658081 -0.0000000007 19.2652693684 -0.3084338552 0.0000000003 19.4651900548 -0.3028019021 0.0000000014 -0.3604635523 -0.6734992360 -0.0000013891 -0.1605132622 -0.6690404059 -0.0000014208 0.0394370301 -0.6645815749 -0.0000014536 0.2393873229 -0.6601227439 -0.0000014854 0.4393376147 -0.6556639125 -0.0000015141 0.6392879067 -0.6512050810 -0.0000015382 0.8392381988 -0.6467462494 -0.0000015554 1.0391884922 -0.6422874178 -0.0000015625 1.2391387856 -0.6378285851 -0.0000015523 1.4390890777 -0.6333697522 -0.0000015276 1.6390393696 -0.6289109192 -0.0000014901 1.8389896614 -0.6244520860 -0.0000014401 2.0389399538 -0.6199932528 -0.0000013763 2.2388902462 -0.6155344196 -0.0000012959 2.4388405375 -0.6110755864 -0.0000012057 2.6387908287 -0.6066167528 -0.0000011085 2.8387411194 -0.6021579190 -0.0000010062 3.0386914105 -0.5976990852 -0.0000009003 3.2386417014 -0.5932402517 -0.0000007940 3.4385919919 -0.5887814180 -0.0000006905 3.6385422825 -0.5843225843 -0.0000005910 3.8384925729 -0.5798637507 -0.0000004966 4.0384428635 -0.5754049173 -0.0000004093 4.2383931541 -0.5709460841 -0.0000003342 4.4383434444 -0.5664872509 -0.0000002696 4.6382937346 -0.5620284176 -0.0000002139 4.8382440248 -0.5575695843 -0.0000001665 5.0381943150 -0.5531107511 -0.0000001274 5.2381446053 -0.5486519179 -0.0000000992 5.4380948952 -0.5441930852 -0.0000000786 5.6380451851 -0.5397342523 -0.0000000635 5.8379954750 -0.5352754194 -0.0000000533 6.0379457652 -0.5308165864 -0.0000000476 6.2378960554 -0.5263577534 -0.0000000479 6.4378463456 -0.5218989204 -0.0000000525 6.6377966361 -0.5174400873 -0.0000000606 6.8377469265 -0.5129812542 -0.0000000719 7.0376972172 -0.5085224209 -0.0000000871 7.2376475081 -0.5040635873 -0.0000001063 7.4375977987 -0.4996047535 -0.0000001273 7.6375480897 -0.4951459196 -0.0000001482 7.8374983807 -0.4906870856 -0.0000001675 8.0374486721 -0.4862282516 -0.0000001836 8.2373989637 -0.4817694173 -0.0000001947 8.4373492546 -0.4773105831 -0.0000002023 8.6372995459 -0.4728517487 -0.0000002082 8.8372498369 -0.4683929144 -0.0000002132 9.0372001286 -0.4639340802 -0.0000002192 9.2371504203 -0.4594752459 -0.0000002283 9.4371007114 -0.4550164119 -0.0000002408 9.6370510026 -0.4505575778 -0.0000002581 9.8370012938 -0.4460987437 -0.0000002810 10.0369515855 -0.4416399093 -0.0000003115 10.2369018772 -0.4371810746 -0.0000003505 10.4368521685 -0.4327222402 -0.0000003939 10.6368024599 -0.4282634058 -0.0000004402 10.8367527513 -0.4238045712 -0.0000004884 11.0367030433 -0.4193457363 -0.0000005371 11.2366533354 -0.4148869008 -0.0000005835 11.4366036270 -0.4104280651 -0.0000006256 11.6365539186 -0.4059692293 -0.0000006625 11.8365042097 -0.4015103931 -0.0000006928 12.0364545019 -0.3970515566 -0.0000007146 12.2364047937 -0.3925927204 -0.0000007254 12.4363550852 -0.3881338835 -0.0000007284 12.6363053769 -0.3836750467 -0.0000007239 12.8362556678 -0.3792162098 -0.0000007160 13.0362059600 -0.3747573718 -0.0000007054 13.2361562517 -0.3702985349 -0.0000006928 13.4361065430 -0.3658396957 -0.0000006792 13.6837031942 -0.3475945692 0.0000000000 13.8837013774 -0.3484473643 0.0000000000 14.0836995595 -0.3493001608 0.0000000000 14.2836977417 -0.3501529579 0.0000000000 14.4836959239 -0.3510057544 0.0000000000 14.6836941061 -0.3518585513 0.0000000000 14.8836922880 -0.3527113481 0.0000000000 15.0836904700 -0.3535641447 0.0000000000 15.2836886526 -0.3544169419 0.0000000000 15.4836868346 -0.3552697381 0.0000000000 15.6836850171 -0.3561225346 0.0000000000 15.8836831966 -0.3569753336 0.0000000000 16.1616213045 -0.2225927314 -0.0000000087 16.3615419900 -0.2169607778 -0.0000000077 16.5614626773 -0.2113288242 -0.0000000069 16.7613833647 -0.2056968713 -0.0000000060 16.9613040517 -0.2000649185 -0.0000000052 17.1612247387 -0.1944329659 -0.0000000043 17.3611454256 -0.1888010134 -0.0000000036 17.5610661131 -0.1831690606 -0.0000000030 17.7609868004 -0.1775371081 -0.0000000026 17.9609074874 -0.1719051555 -0.0000000022 18.1608281744 -0.1662732029 -0.0000000019 18.3607488615 -0.1606412505 -0.0000000016 18.5606695492 -0.1550092974 -0.0000000012 18.7605902368 -0.1493773449 -0.0000000006 18.9605109238 -0.1437453920 0.0000000003 19.1604316108 -0.1381134392 0.0000000013 19.3603522977 -0.1324814864 0.0000000024 19.5602729837 -0.1268495334 0.0000000035 -0.4643001588 -0.5025666204 -0.0000013082 -0.2643498681 -0.4981077901 -0.0000013365 -0.0643995757 -0.4936489594 -0.0000013650 0.1355507149 -0.4891901284 -0.0000013936 0.3355010077 -0.4847312971 -0.0000014200 0.5354512995 -0.4802724657 -0.0000014429 0.7354015917 -0.4758136343 -0.0000014603 0.9353518844 -0.4713548028 -0.0000014698 1.1353021765 -0.4668959702 -0.0000014661 1.3352524692 -0.4624371377 -0.0000014470 1.5352027612 -0.4579783047 -0.0000014159 1.7351530530 -0.4535194716 -0.0000013727 1.9351033452 -0.4490606385 -0.0000013180 2.1350536365 -0.4446018049 -0.0000012486 2.3350039286 -0.4401429719 -0.0000011667 2.5349542199 -0.4356841385 -0.0000010771 2.7349045108 -0.4312253048 -0.0000009818 2.9348548019 -0.4267664709 -0.0000008828 3.1348050923 -0.4223076370 -0.0000007817 3.3347553833 -0.4178488035 -0.0000006821 3.5347056739 -0.4133899699 -0.0000005853 3.7346559645 -0.4089311362 -0.0000004933 3.9346062553 -0.4044723028 -0.0000004073 4.1345565453 -0.4000134692 -0.0000003315 4.3345068360 -0.3955546360 -0.0000002671 4.5344571265 -0.3910958029 -0.0000002116 4.7344074168 -0.3866369696 -0.0000001648 4.9343577073 -0.3821781363 -0.0000001259 5.1343079968 -0.3777193031 -0.0000000968 5.3342582872 -0.3732604700 -0.000000
[...]
      <PointData Scalars="radius">
        <DataArray type="Float32" Name="radius" format="ascii">
 0.1000000000 0.1000000000 0.1000000000 0.1000000000 0.1000000000 0.1000000000 0.1000000000 0.1000000000 0.1000000000 0.1000000000 0.1000000000 0.1000000000 0.1000000000 0.1000000000 0.1000000000 0.1000000000 0.1000000000 0.1000000000 0.1000000000 0.1000000000 0.1000000000 0.1000000000 0.1000000000 0.1000000000 0.1000000000 0.1000000000 0.1000000000 0.1000000000 0.1000000000 0.1000000000 0.1000000000 0.1000000000 0.1000000000 0.1000000000 0.1000000000 0.1000000000 0.1000000000 0.1000000000 0.1000000000 0.1000000000 0.1000000000 0.1000000000 0.1000000000 0.1000000000 0.1000000000 0.1000000000 0.1000000000 0.1000000000 0.1000000000 0.1000000000 0.1000000000 0.1000000000 0.1000000000 0.1000000000 0.1000000000 0.1000000000 0.1000000000 0.1000000000 0.1000000000 0.1000000000 0.1000000000 0.1000000000 0.1000000000 0.1000000000 0.1000000000 0.1000000000 0.1000000000 0.1000000000 0.1000000000 0.1000000000 0.1000000000 0.1000000000 0.1000000000 0.1000000000 0.1000000000 0.1000000000 0.1000000000 0.1000000000 0.1000000000 0.1000000000 0.1000000000 0.1000000000 0.1000000000 0.1000000000 0.1000000000 0.1000000000 0.1000000000 0.1000000000 0.1000000000 0.1000000000 0.1000000000 0.1000000000 0.1000000000 0.1000000000 0.1000000000 0.1000000000 0.1000000000 0.1000000000 0.1000000000 0.1000000000 0.1000000000 0.1000000000 0.1000000000 0.1000000000 0.1000000000 0.1000000000 0.1000000000 0.1000000000 0.1000000000 0.1000000000 0.1000000000 0.1000000000 0.1000000000 0.1000000000 0.1000000000 0.1000000000 0.1000000000 0.1000000000 0.1000000000 0.1000000000 0.1000000000 0.1000000000 0.1000000000 0.1000000000 0.1000000000 0.1000000000 0.1000000000 0.1000000000 0.1000000000 0.1000000000 0.1000000000 0.1000000000 0.1000000000 0.1000000000 0.1000000000 0.1000000000 0.1000000000 0.1000000000 0.1000000000 0.1000000000 0.1000000000 0.1000000000 0.1000000000 0.1000000000 0.1000000000 0.1000000000 0.1000000000 0.1000000000 0.1000000000 0.1000000000 0.1000000000 0.1000000000 0.1000000000 0.1000000000 0.1000000000 0.1000000000 0.1000000000 0.1000000000 0.1000000000 0.1000000000 0.1000000000 0.1000000000 0.1000000000 0.1000000000 0.1000000000 0.1000000000 0.1000000000 0.1000000000 0.1000000000 0.1000000000 0.1000000000 0.1000000000 0.1000000000 0.1000000000 0.1000000000 0.1000000000 0.1000000000 0.1000000000 0.1000000000 0.1000000000 0.1000000000 0.1000000000 0.1000000000 0.1000000000 0.1000000000 0.1000000000 0.1000000000 0.1000000000 0.1000000000 0.1000000000 0.1000000000 0.1000000000 0.1000000000 0.1000000000 0.1000000000 0.1000000000 0.1000000000 0.1000000000 0.1000000000 0.1000000000 0.1000000000 0.1000000000 0.1000000000 0.1000000000 0.1000000000 0.1000000000 0.1000000000 0.1000000000 0.1000000000 0.1000000000 0.1000000000 0.1000000000 0.1000000000 0.1000000000 0.1000000000 0.1000000000 0.1000000000 0.1000000000 0.1000000000 0.1000000000 0.1000000000 0.1000000000 0.1000000000 0.1000000000 0.1000000000 0.1000000000 0.1000000000 0.1000000000 0.1000000000 0.1000000000 0.1000000000 0.1000000000 0.1000000000 0.1000000000 0.1000000000 0.1000000000 0.1000000000 0.1000000000 0.1000000000 0.1000000000 0.1000000000 0.1000000000 0.1000000000 0.1000000000 0.1000000000 0.1000000000 0.1000000000 0.1000000000 0.1000000000 0.1000000000 0.1000000000 0.1000000000 0.1000000000 0.1000000000 0.1000000000 0.1000000000 0.1000000000 0.1000000000 0.1000000000 0.1000000000 0.1000000000 0.1000000000 0.1000000000 0.1000000000 0.1000000000 0.1000000000 0.1000000000 0.1000000000 0.1000000000 0.1000000000 0.1000000000 0.1000000000 0.1000000000 0.1000000000 0.1000000000 0.1000000000 0.1000000000 0.1000000000 0.1000000000 0.1000000000 0.1000000000 0.1000000000 0.1000000000 0.1000000000 0.1000000000 0.1000000000 0.1000000000 0.1000000000 0.1000000000 0.1000000000 0.1000000000 0.1000000000 0.1000000000 0.1000000000 0.1000000000 0.1000000000 0.1000000000 0.1000000000 0.1000000000 0.1000000000 0.1000000000 0.1000000000 0.1000000000 0.1000000000 0.1000000000 0.1000000000 0.1000000000 0.1000000000 0.1000000000 0.1000000000 0.1000000000 0.1000000000 0.1000000000 0.1000000000 0.1000000000 0.1000000000 0.1000000000 0.1000000000 0.1000000000 0.1000000000 0.1000000000 0.1000000000 0.1000000000 0.1000000000 0.1000000000 0.1000000000 0.1000000000 0.1000000000 0.1000000000 0.1000000000 0.1000000000 0.1000000000 0.1000000000 0.1000000000 0.1000000000 0.1000000000 0.1000000000 0.1000000000 0.1000000000 0.1000000000 0.1000000000 0.1000000000 0.1000000000 0.1000000000 0.1000000000 0.1000000000 0.1000000000 0.1000000000 0.1000000000 0.1000000000 0.1000000000 0.1000000000 0.1000000000 0.1000000000 0.1000000000 0.1000000000 0.1000000000 0.1000000000 0.1000000000 0.1000000000 0.1000000000 0.1000000000 0.1000000000 0.1000000000 0.1000000000 0.1000000000 0.1000000000 0.1000000000 0.1000000000 0.1000000000 0.1000000000 0.1000000000 0.1000000000 0.1000000000 0.1000000000 0.1000000000 0.1000000000 0.1000000000 0.1000000000 0.1000000000 0.1000000000 0.1000000000 0.1000000000 0.1000000000 0.1000000000 0.1000000000 0.1000000000 0.1000000000 0.1000000000 0.1000000000 0.1000000000 0.1000000000 0.1000000000 0.1000000000 0.1000000000 0.1000000000 0.1000000000 0.1000000000 0.1000000000 0.1000000000 0.1000000000 0.1000000000 0.1000000000 0.1000000000 0.1000000000 0.1000000000 0.1000000000 0.1000000000 0.1000000000 0.1000000000 0.1000000000 0.1000000000 0.1000000000 0.1000000000 0.1000000000 0.1000000000 0.1000000000 0.1000000000 0.1000000000 0.1000000000 0.1000000000 0.1000000000 0.1000000000 0.1000000000 0.1000000000 0.1000000000 0.1000000000 0.1000000000 0.1000000000 0.1000000000 0.1000000000 0.1000000000 0.1000000000 0.1000000000 0.1000000000 0.1000000000 0.1000000000 0.1000000000 0.1000000000 0.1000000000 0.1000000000 0.1000000000 0.1000000000 0.1000000000 0.1000000000 0.1000000000 0.1000000000 0.1000000000 0.1000000000 0.1000000000 0.1000000000 0.1000000000 0.1000000000 0.1000000000 0.1000000000 0.1000000000 0.1000000000 0.1000000000 0.1000000000 0.1000000000 0.1000000000 0.1000000000 0.1000000000 0.1000000000 0.1000000000 0.1000000000 0.1000000000 0.1000000000 0.1000000000 0.1000000000 0.1000000000 0.1000000000 0.1000000000 0.1000000000 0.1000000000 0.1000000000 0.1000000000 0.1000000000 0.1000000000 0.1000000000 0.1000000000 0.1000000000 0.1000000000 0.1000000000 0.1000000000 0.1000000000 0.1000000000 0.1000000000 0.1000000000 0.1000000000 0.1000000000 0.1000000000 0.1000000000 0.1000000000 0.1000000000 0.1000000000 0.1000000000 0.1000000000 0.1000000000 0.1000000000 0.1000000000 0.1000000000 0.1000000000 0.1000000000 0.1000000000 0.1000000000 0.1000000000 0.1000000000 0.1000000000 0.1000000000 0.1000000000 0.1000000000 0.1000000000 0.1000000000 0.1000000000 0.1000000000 0.1000000000 0.1000000000 0.1000000000 0.1000000000 0.1000000000 0.1000000000 0.1000000000 0.1000000000 0.1000000000 0.1000000000 0.1000000000 0.1000000000 0.1000000000 0.1000000000 0.1000000000 0.1000000000 0.1000000000 0.1000000000 0.1000000000 0.1000000000 0.1000000000 0.1000000000 0.1000000000 0.1000000000 0.1000000000 0.1000000000 0.1000000000 0.1000000000 0.1000000000 0.1000000000 0.1000000000 0.1000000000 0.1000000000 0.1000000000 0.1000000000 0.1000000000 0.1000000000 0.1000000000 0.1000000000 0.1000000000 0.1000000000 0.1000000000 0.1000000000 0.1000000000 0.1000000000 0.1000000000 0.1000000000 0.1000000000 0.1000000000 0.1000000000 0.1000000000 0.1000000000 0.1000000000 0.1000000000 0.1000000000 0.1000000000 0.1000000000 0.1000000000 0.1000000000 0.1000000000 0.1000000000 0.1000000000 0.1000000000 0.1000000000 0.1000000000 0.1000000000 0.1000000000 0.1000000000 0.1000000000 0.1000000000 0.1000000000 0.1000000000 0.1000000000 0.1000000000 0.1000000000 0.1000000000 0.1000000000 0.1000000000 0.1000000000 0.1000000000 0.1000000000 0.1000000000 0.1000000000 0.1000000000 0.1000000000 0.1000000000 0.1000000000 0.1000000000 0.1000000000 0.1000000000 0.1000000000 0.1000000000 0.1000000000 0.1000000000 0.1000000000 0.1000000000 0.1000000000 0.1000000000 0.1000000000 0.1000000000 0.1000000000 0.1000000000 0.1000000000 0.1000000000 0.1000000000 0.1000000000 0.1000000000 0.1000000000 0.1000000000 0.1000000000 0.1000000000 0.1000000000 0.1000000000 0.1000000000 0.1000000000 0.1000000000 0.1000000000 0.1000000000 0.1000000000 0.1000000000 0.1000000000 0.1000000000 0.1000000000 0.1000000000 0.1000000000 0.1000000000 0.1000000000 0.1000000000 0.1000000000 0.1000000000 0.1000000000 0.1000000000 0.1000000000 0.1000000000 0.1000000000 0.1000000000 0.1000000000 0.1000000000 0.1000000000 0.1000000000 0.1000000000 0.1000000000 0.1000000000 0.1000000000 0.1000000000 0.1000000000 0.1000000000 0.1000000000 0.1000000000 0.1000000000 0.1000000000 0.1000000000 0.1000000000 0.1000000000 0.1000000000 0.1000000000 0.1000000000 0.1000000000 0.1000000000 0.1000000000 0.1000000000 0.1000000000 0.1000000000 0.1000000000 0.1000000000 0.1000000000 0.1000000000 0.1000000000 0.1000000000 0.1000000000 0.1000000000 0.1000000000 0.1000000000 0.1000000000 0.1000000000 0.1000000000 0.1000000000 0.1000000000 0.1000000000 0.1000000000 0.1000000000 0.1000000000 0.1000000000 0.1000000000 0.1000000000 0.1000000000 0.1000000000 0.1000000000 0.1000000000 0.1000000000 0.1000000000 0.1000000000 0.1000000000 0.1000000000 0.1000000000 0.1000000000 0.1000000000 0.1000000000 0.1000000000 0.1000000000 0.1000000000 0.1000000000 0.1000000000 0.1000000000 0.1000000000 0.1000000000 0.1000000000 0.1000000000 0.1000000000 0.1000000000 0.1000000000 0.1000000000 0.1000000000 0.1000000000 0.1000000000 0.1000000000 0.1000000000 0.1000000000 0.1000000000 0.1000000000 0.1000000000 0.1000000000 0.1000000000 0.1000000000 0.1000000000 0.1000000000 0.1000000000 0.1000000000 0.1000000000 0.1000000000 0.1000000000 0.1000000000 0.1000000000 0.1000000000 0.1000000000 0.1000000000 0.1000000000 0.1000000000 0.1000000000 0.1000000000 0.1000000000 0.1000000000 0.1000000000 0.1000000000 0.1000000000 0.1000000000 0.1000000000 0.1000000000 0.1000000000 0.1000000000 0.1000000000 0.1000000000 0.1000000000 0.1000000000 0.1000000000 0.1000000000 0.1000000000 0.1000000000 0.1000000000 0.1000000000 0.1000000000 0.1000000000 0.1000000000 0.1000000000 0.1000000000 0.1000000000 0.1000000000 0.1000000000 0.1000000000 0.1000000000 0.1000000000 0.1000000000 0.1000000000 0.1000000000 0.1000000000 0.1000000000 0.1000000000 0.1000000000 0.1000000000 0.1000000000 0.1000000000 0.1000000000 0.1000000000 0.1000000000 0.1000000000 0.1000000000 0.1000000000 0.1000000000 0.1000000000 0.1000000000 0.1000000000 0.1000000000 0.1000000000 0.1000000000 0.1000000000 0.1000000000 0.1000000000 0.1000000000 0.1000000000 0.1000000000 0.1000000000 0.1000000000 0.1000000000 0.1000000000 0.1000000000 0.1000000000 0.1000000000 0.1000000000 0.1000000000 0.1000000000 0.1000000000 0.1000000000 0.1000000000 0.1000000000 0.1000000000 0.1000000000 0.1000000000 0.1000000000 0.1000000000 0.1000000000 0.1000000000 0.1000000000 0.1000000000 0.1000000000 0.1000000000 0.1000000000 0.1000000000 0.1000000000 0.1000000000 0.1000000000 0.1000000000 0.1000000000 0.1000000000 0.1000000000 0.1000000000 0.1000000000 0.1000000000 0.1000000000 0.1000000000 0.1000000000 0.1000000000 0.1000000000 0.1000000000 0.1000000000 0.1000000000 0.1000000000 0.1000000000 0.1000000000 0.1000000000 0.1000000000 0.1000000000 0.1000000000 0.1000000000 0.1000000000 0.1000000000 0.1000000000 0.1000000000 0.1000000000 0.1000000000 0.1000000000 0.1000000000 0.1000000000 0.1000000000 0.1000000000 0.1000000000 0.1000000000 0.1000000000 0.1000000000 0.1000000000 0.1000000000 0.1000000000 0.1000000000 0.1000000000 0.1000000000 0.1000000000 0.1000000000 0.1000000000 0.1000000000 0.1000000000 0.1000000000 0.1000000000 0.1000000000 0.1000000000 0.1000000000 0.1000000000 0.1000000000 0.1000000000 0.1000000000 0.1000000000 0.1000000000 0.1000000000 0.1000000000 0.1000000000 0.1000000000 0.1000000000 0.1000000000 0.1000000000 0.1000000000 0.1000000000 0.1000000000 0.1000000000 0.1000000000 0.1000000000 0.1000000000 0.1000000000 0.1000000000 0.1000000000 0.1000000000 0.1000000000 0.1000000000 0.1000000000 0.1000000000 0.1000000000 0.1000000000 0.1000000000 0.1000000000 0.1000000000 0.1000000000 0.1000000000 0.1000000000 0.1000000000 0.1000000000 0.1000000000 0.1000000000 0.1000000000 0.1000000000 0.1000000000 0.1000000000 0.1000000000 0.1000000000 0.1000000000 0.1000000000 0.1000000000 0.1000000000 0.1000000000 0.1000000000 0.1000000000 0.1000000000 0.1000000000 0.1000000000 0.1000000000 0.1000000000 0.1000000000 0.1000000000 0.1000000000 0.1000000000 0.1000000000 0.1000000000 0.1000000000 0.1000000000 0.1000000000 0.1000000000 0.1000000000 0.1000000000 0.1000000000 0.1000000000 0.1000000000 0.1000000000 0.1000000000 0.1000000000 0.1000000000 0.1000000000 0.1000000000 0.1000000000 0.1000000000 0.1000000000 0.1000000000 0.1000000000 0.1000000000 0.1000000000 0.1000000000 0.1000000000 0.1000000000 0.1000000000 0.1000000000 0.1000000000 0.1000000000 0.1000000000 0.1000000000 0.1000000000 0.1000000000 0.1000000000 0.1000000000 0.1000000000 0.1000000000 0.1000000000 0.1000000000 0.1000000000 0.1000000000 0.1000000000 0.1000000000 0.1000000000 0.1000000000 0.1000000000 0.1000000000 0.1000000000 0.1000000000 0.1000000000 0.1000000000 0.1000000000 0.1000000000 0.1000000000 0.1000000000 0.1000000000 0.1000000000 0.1000000000 0.1000000000 0.1000000000 0.1000000000 0.1000000000 0.1000000000 0.1000000000 0.1000000000 0.1000000000 0.1000000000 0.1000000000 0.1000000000 0.1000000000 0.1000000000 0.1000000000 0.1000000000 0.1000000000 0.1000000000 0.1000000000 0.1000000000 0.1000000000 0.1000000000 0.1000000000 0.1000000000 0.1000000000 0.1000000000 0.1000000000 0.1000000000 0.1000000000 0.1000000000 0.1000000000 0.1000000000 0.1000000000 0.1000000000 0.1000000000 0.1000000000 0.1000000000 0.1000000000 0.1000000000 0.1000000000 0.1000000000 0.1000000000 0.1000000000 0.1000000000 0.1000000000 0.1000000000 0.1000000000 0.1000000000 0.1000000000 0.1000000000 0.1000000000 0.1000000000 0.1000000000 0.1000000000 0.1000000000 0.1000000000 0.1000000000 0.1000000000 0.1000000000 0.1000000000 0.1000000000 0.1000000000 0.1000000000 0.1000000000 0.1000000000 0.1000000000 0.1000000000 0.1000000000 0.1000000000 0.1000000000 0.1000000000 0.1000000000 0.1000000000 0.1000000000 0.1000000000 0.1000000000 0.1000000000 0.1000000000 0.1000000000 0.1000000000 0.1000000000 0.1000000000 0.1000000000 0.1000000000 0.1000000000 0.1000000000 0.1000000000 0.1000000000 0.1000000000 0.1000000000 0.1000000000 0.1000000000 0.1000000000 0.1000000000 0.1000000000 0.1000000000 0.1000000000 0.1000000000 0.1000000000 0.1000000000 0.1000000000 0.1000000000 0.1000000000 0.1000000000 0.1000000000 0.1000000000 0.1000000000 0.1000000000 0.1000000000 0.1000000000 0.1000000000 0.1000000000 0.1000000000 0.1000000000 0.1000000000 0.1000000000 0.1000000000 0.1000000000 0.1000000000 0.1000000000 0.1000000000 0.1000000000 0.1000000000 0.1000000000 0.1000000000 0.1000000000 0.1000000000 0.1000000000 0.1000000000 0.1000000000 0.1000000000 0.1000000000 0.1000000000 0.1000000000 0.1000000000 0.1000000000 0.1000000000 0.1000000000 0.1000000000 0.1000000000 0.1000000000 0.1000000000 0.1000000000 0.1000000000 0.1000000000 0.1000000000 0.1000000000 0.1000000000 0.1000000000 0.1000000000 0.1000000000 0.1000000000 0.1000000000 0.1000000000 0.1000000000 0.1000000000 0.1000000000 0.1000000000 0.1000000000 0.1000000000 0.1000000000 0.1000000000 0.1000000000 0.1000000000 0.1000000000 0.1000000000 0.1000000000 0.1000000000 0.1000000000 0.1000000000 0.1000000000 0.1000000000 0.1000000000 0.1000000000 0.1000000000 0.1000000000 0.1000000000 0.1000000000 0.1000000000 0.1000000000 0.1000000000 0.1000000000 0.1000000000 0.1000000000 0.1000000000 0.1000000000 0.1000000000 0.1000000000 0.1000000000 0.1000000000 0.1000000000 0.1000000000 0.1000000000 0.1000000000 0.1000000000 0.1000000000 0.1000000000 0.1000000000 0.1000000000 0.1000000000 0.1000000000 0.1000000000 0.1000000000 0.1000000000 0.1000000000 0.1000000000 0.1000000000 0.1000000000 0.1000000000 0.1000000000 0.1000000000 0.1000000000 0.1000000000 0.1000000000 0.1000000000 0.1000000000 0.1000000000 0.1000000000 0.1000000000 0.1000000000 0.1000000000 0.1000000000 0.1000000000 0.1000000000 0.1000000000 0.1000000000 0.1000000000 0.1000000000 0.1000000000 0.1000000000 0.1000000000 0.1000000000 0.1000000000 0.1000000000 0.1000000000 0.1000000000 0.1000000000 0.1000000000 0.1000000000 0.1000000000 0.1000000000 0.1000000000 0.1000000000 0.1000000000 0.1000000000 0.1000000000 0.1000000000 0.1000000000 0.1000000000 0.1000000000 0.1000000000 0.1000000000 0.1000000000 0.1000000000 0.1000000000 0.1000000000 0.1000000000 0.1000000000 0.1000000000 0.1000000000 0.1000000000 0.1000000000 0.1000000000 0.1000000000 0.1000000000 0.1000000000 0.1000000000 0.1000000000 0.1000000000 0.1000000000 0.1000000000 0.1000000000 0.1000000000 0.1000000000 0.1000000000 0.1000000000 0.1000000000 0.1000000000 0.1000000000 0.1000000000 0.1000000000 0.1000000000 0.1000000000 0.1000000000 0.1000000000 0.1000000000 0.1000000000 0.1000000000 0.1000000000 0.1000000000 0.1000000000 0.1000000000 0.1000000000 0.1000000000 0.1000000000 0.1000000000 0.1000000000 0.1000000000 0.1000000000 0.1000000000 0.1000000000 0.1000000000 0.1000000000 0.1000000000 0.1000000000 0.1000000000 0.1000000000 0.1000000000 0.1000000000 0.1000000000 0.1000000000 0.1000000000 0.1000000000 0.1000000000 0.1000000000 0.1000000000 0.1000000000 0.1000000000 0.1000000000 0.1000000000 0.1000000000 0.1000000000 0.1000000000 0.1000000000 0.1000000000 0.1000000000 0.1000000000 0.1000000000 0.1000000000 0.1000000000 0.1000000000 0.1000000000 0.1000000000 0.1000000000 0.1000000000 0.1000000000 0.1000000000 0.1000000000 0.1000000000 0.1000000000 0.1000000000 0.1000000000 0.1000000000 0.1000000000 0.1000000000 0.1000000000 0.1000000000 0.1000000000 0.1000000000 0.1000000000 0.1000000000 0.1000000000 0.1000000000 0.1000000000 0.1000000000 0.1000000000 0.1000000000 0.1000000000 0.1000000000 0.1000000000 0.1000000000 0.1000000000 0.1000000000 0.1000000000 0.1000000000 0.1000000000 0.1000000000 0.1000000000 0.1000000000 0.1000000000 0.1000000000 0.1000000000 0.1000000000 0.1000000000 0.1000000000 0.1000000000 0.1000000000 0.1000000000 0.1000000000 0.1000000000 0.1000000000 0.1000000000 0.1000000000 0.1000000000 0.1000000000 0.1000000000 0.1000000000 0.1000000000 0.1000000000 0.1000000000 0.1000000000 0.1000000000 0.1000000000 0.1000000000 0.1000000000 0.1000000000 0.1000000000 0.1000000000 0.1000000000 0.1000000000 0.1000000000 0.1000000000 0.1000000000 0.1000000000 0.1000000000 0.1000000000 0.1000000000 0.1000000000 0.1000000000 0.1000000000 0.1000000000 0.1000000000 0.1000000000 0.1000000000 0.1000000000 0.1000000000 0.1000000000 0.1000000000 0.1000000000 0.1000000000 0.1000000000 0.1000000000 0.1000000000 0.1000000000 0.1000000000 0.1000000000 0.1000000000 0.1000000000 0.1000000000 0.1000000000 0.1000000000 0.1000000000 0.1000000000 0.1000000000 0.1000000000 0.1000000000 0.1000000000 0.1000000000 0.1000000000 0.1000000000 0.1000000000 0.1000000000 0.1000000000 0.1000000000 0.1000000000 0.1000000000 0.1000000000 0.1000000000 0.1000000000 0.1000000000 0.1000000000 0.1000000000 0.1000000000 0.1000000000 0.1000000000 0.1000000000 0.1000000000 0.1000000000 0.1000000000 0.1000000000 0.1000000000 0.1000000000 0.1000000000 0.1000000000 0.1000000000 0.1000000000 0.1000000000 0.1000000000 0.1000000000 0.1000000000 0.1000000000 0.1000000000 0.1000000000 0.1000000000 0.1000000000 0.1000000000 0.1000000000 0.1000000000 0.1000000000 0.1000000000 0.1000000000 0.1000000000 0.1000000000 0.1000000000 0.1000000000 0.1000000000 0.1000000000 0.1000000000 0.1000000000 0.1000000000 0.1000000000 0.1000000000 0.1000000000 0.1000000000 0.1000000000 0.1000000000 0.1000000000 0.1000000000 0.1000000000 0.1000000000 0.1000000000 0.1000000000 0.1000000000 0.1000000000 0.1000000000 0.1000000000 0.1000000000 0.1000000000 0.1000000000 0.10000000