<?xml version="1.0"?>
<VTKFile type="UnstructuredGrid" version="0.1" byte_order="LittleEndian">
  <UnstructuredGrid>
    <FieldData>
      <DataArray type="Float32" Name="TIME"  NumberOfTuples="1" format="ascii"> 1.1000000000 </DataArray>
      <DataArray type="Int32"   Name="STEP"  NumberOfTuples="1" format="ascii"> 275000 </DataArray>
    </FieldData>
    <Piece NumberOfPoints="11600" NumberOfCells="11600">
      <Points>
        <DataArray type="Float32" NumberOfComponents="3" format="ascii">
 -0.1736673466 -0.3937247554 0.0000000000 0.0263197619 -0.3914540826 0.0000000000 0.2263068736 -0.3891834098 0.0000000000 0.4262939827 -0.3869127364 0.0000000000 0.6262810943 -0.3846420623 0.0000000000 0.8262682038 -0.3823713883 0.0000000000 1.0262553130 -0.3801007140 0.0000000000 1.2262424223 -0.3778300401 0.0000000000 1.4262295291 -0.3755593666 0.0000000000 1.6262166376 -0.3732886936 0.0000000000 1.8262037451 -0.3710180214 0.0000000000 2.0261908522 -0.3687473498 0.0000000000 2.2261779595 -0.3664766788 0.0000000000 2.4261650631 -0.3642060086 0.0000000000 2.6261521698 -0.3619353388 0.0000000000 2.8261392758 -0.3596646697 0.0000000000 3.0261263816 -0.3573940006 0.0000000000 3.2261134881 -0.3551233318 0.0000000000 3.4261005903 -0.3528526633 0.0000000000 3.6260876963 -0.3505819954 0.0000000000 3.8260748014 -0.3483113280 0.0000000000 4.0260619064 -0.3460406606 0.0000000000 4.2260490119 -0.3437699936 0.0000000000 4.4260361123 -0.3414993269 0.0000000000 4.6260232170 -0.3392286608 0.0000000000 4.8260103210 -0.3369579955 0.0000000000 5.0259974248 -0.3346873308 0.0000000000 5.2259845294 -0.3324166671 0.0000000000 5.4259716291 -0.3301460041 0.0000000000 5.6259587341 -0.3278753417 0.0000000000 5.8259458387 -0.3256046796 0.0000000000 6.0259329434 -0.3233340175 0.0000000000 6.2259200489 -0.3210633554 0.0000000000 6.4259071500 -0.3187926930 0.0000000000 6.6258942553 -0.3165220308 0.0000000000 6.8258813598 -0.3142513688 0.0000000000 7.0258684640 -0.3119807069 0.0000000000 7.2258555689 -0.3097100455 0.0000000000 7.4258426687 -0.3074393842 0.0000000000 7.6258297732 -0.3051687239 0.0000000000 7.8258168769 -0.3028980644 0.0000000000 8.0258039805 -0.3006274058 0.0000000000 8.2257910848 -0.2983567480 0.0000000000 8.4257781841 -0.2960860909 0.0000000000 8.6257652886 -0.2938154345 0.0000000000 8.8257523924 -0.2915447789 0.0000000000 9.0257394964 -0.2892741237 0.0000000000 9.2257266011 -0.2870034691 0.0000000000 9.4257137010 -0.2847328149 0.0000000000 9.6257008059 -0.2824621614 0.0000000000 9.8256879101 -0.2801915085 0.0000000000 10.0256750147 -0.2779208560 0.0000000000 10.2256621199 -0.2756502036 0.0000000000 10.4256492212 -0.2733795515 0.0000000000 10.6256363269 -0.2711088996 0.0000000000 10.8256234322 -0.2688382479 0.0000000000 11.0256105373 -0.2665675966 0.0000000000 11.2255976434 -0.2642969460 0.0000000000 11.4255847452 -0.2620262963 0.0000000000 11.6255718511 -0.2597556475 0.0000000000 11.8255589560 -0.2574850001 0.0000000000 12.0255460611 -0.2552143544 0.0000000000 12.2255331672 -0.2529437101 0.0000000000 12.4255202691 -0.2506730674 0.0000000000 12.6255073758 -0.2484024266 0.0000000000 12.8254944782 -0.2461317887 0.0000000000 13.0254815849 -0.2438611523 0.0000000000 13.2254686922 -0.2415905189 0.0000000000 13.4254557967 -0.2393198880 0.0000000000 13.6254429065 -0.2370492599 0.0000000000 13.8254300143 -0.2347786328 0.0000000000 14.0385726720 -0.2299353769 0.0000000000 14.2385724186 -0.2302533599 0.0000000000 14.4385721653 -0.2305713427 0.0000000000 14.6385719145 -0.2308893248 0.0000000000 14.8385716613 -0.2312073078 0.0000000000 15.0385714091 -0.2315252900 0.0000000000 15.2385711569 -0.2318432729 0.0000000000 15.4385709037 -0.2321612553 0.0000000000 15.6385706524 -0.2324792379 0.0000000000 15.8385703993 -0.2327972205 0.0000000000 16.0385701473 -0.2331152030 0.0000000000 16.2385698950 -0.2334331851 0.0000000000 16.4743708330 -0.1740328931 -0.0000000009 16.6743556878 -0.1715713005 -0.0000000007 16.8743405523 -0.1691096977 -0.0000000004 17.0743254066 -0.1666480904 -0.0000000001 17.2743102587 -0.1641864807 0.0000000001 17.4742951098 -0.1617248683 0.0000000004 17.6742799614 -0.1592632562 0.0000000006 17.8742648106 -0.1568016432 0.0000000009 18.0742496605 -0.1543400305 0.0000000011 18.2742345095 -0.1518784196 0.0000000014 18.4742193585 -0.1494168090 0.0000000016 18.6742042096 -0.1469552001 0.0000000018 18.8741890665 -0.1444935897 0.0000000021 19.0741739207 -0.1420319778 0.0000000023 19.2741587738 -0.1395703660 0.0000000026 19.4741436262 -0.1371087530 0.0000000028 19.6741284769 -0.1346471393 0.0000000030 -0.0756402521 -0.2193955023 0.0000000000 0.1243468566 -0.2171248301 0.0000000000 0.3243339672 -0.2148541566 0.0000000000 0.5243210781 -0.2125834832 0.0000000000 0.7243081876 -0.2103128091 0.0000000000 0.9242952969 -0.2080421346 0.0000000000 1.1242824058 -0.2057714602 0.0000000000 1.3242695149 -0.2035007863 0.0000000000 1.5242566237 -0.2012301133 0.0000000000 1.7242437317 -0.1989594407 0.0000000000 1.9242308394 -0.1966887687 0.0000000000 2.1242179465 -0.1944180971 0.0000000000 2.3242050532 -0.1921474261 0.0000000000 2.5241921595 -0.1898767563 0.0000000000 2.7241792656 -0.1876060870 0.0000000000 2.9241663716 -0.1853354176 0.0000000000 3.1241534772 -0.1830647485 0.0000000000 3.3241405826 -0.1807940795 0.0000000000 3.5241276879 -0.1785234116 0.0000000000 3.7241147931 -0.1762527440 0.0000000000 3.9241018983 -0.1739820765 0.0000000000 4.1240890030 -0.1717114091 0.0000000000 4.3240761072 -0.1694407419 0.0000000000 4.5240632113 -0.1671700759 0.0000000000 4.7240503154 -0.1648994102 0.0000000000 4.9240374196 -0.1626287451 0.0000000000 5.1240245237 -0.1603580807 0.0000000000 5.3240116273 -0.1580874172 0.0000000000 5.5239987312 -0.1558167547 0.0000000000 5.7239858353 -0.1535460927 0.0000000000 5.9239729398 -0.1512754306 0.0000000000 6.1239600443 -0.1490047684 0.0000000000 6.3239471485 -0.1467341059 0.0000000000 6.5239342526 -0.1444634438 0.0000000000 6.7239213568 -0.1421927818 0.0000000000 6.9239084613 -0.1399221200 0.0000000000 7.1238955655 -0.1376514582 0.0000000000 7.3238826692 -0.1353807966 0.0000000000 7.5238697729 -0.1331101359 0.0000000000 7.7238568768 -0.1308394762 0.0000000000 7.9238439809 -0.1285688171 0.0000000000 8.1238310848 -0.1262981587 0.0000000000 8.3238181882 -0.1240275009 0.0000000000 8.5238052916 -0.1217568443 0.0000000000 8.7237923954 -0.1194861886 0.0000000000 8.9237794996 -0.1172155331 0.0000000000 9.1237666035 -0.1149448782 0.0000000000 9.3237537073 -0.1126742235 0.0000000000 9.5237408111 -0.1104035698 0.0000000000 9.7237279154 -0.1081329168 0.0000000000 9.9237150201 -0.1058622641 0.0000000000 10.1237021246 -0.1035916117 0.0000000000 10.3236892290 -0.1013209592 0.0000000000 10.5236763337 -0.0990503072 0.0000000000 10.7236634387 -0.0967796556 0.0000000000 10.9236505442 -0.0945090043 0.0000000000 11.1236376496 -0.0922383532 0.0000000000 11.3236247549 -0.0899677027 0.0000000000 11.5236118604 -0.0876970536 0.0000000000 11.7235989661 -0.0854264057 0.0000000000 11.9235860722 -0.0831557593 0.0000000000 12.1235731780 -0.0808851141 0.0000000000 12.3235602843 -0.0786144702 0.0000000000 12.5235473905 -0.0763438293 0.0000000000 12.7235344969 -0.0740731893 0.0000000000 12.9235216040 -0.0718025528 0.0000000000 13.1235087113 -0.0695319184 0.0000000000 13.3234958200 -0.0672612853 0.0000000000 13.5234829291 -0.0649906570 0.0000000000 13.7234700391 -0.0627200296 0.0000000000 13.9388481772 -0.0565715268 0.0000000000 14.1388479257 -0.0568895078 0.0000000000 14.3388476733 -0.0572074904 0.0000000000 14.5388474210 -0.0575254735 0.0000000000 14.7388471686 -0.0578434559 0.0000000000 14.9388469162 -0.0581614387 0.0000000000 15.1388466636 -0.0584794213 0.0000000000 15.3388464111 -0.0587974037 0.0000000000 15.5388461590 -0.0591153867 0.0000000000 15.7388459065 -0.0594333688 0.0000000000 15.9388456543 -0.0597513511 0.0000000000 16.1388453992 -0.0600693358 0.0000000000 16.3722466137 -0.0020717300 -0.0000000009 16.5722314631 0.0003898622 -0.0000000006 16.7722163158 0.0028514597 -0.0000000004 16.9722011685 0.0053130659 -0.0000000002 17.1721860191 0.0077746745 0.0000000001 17.3721708693 0.0102362856 0.0000000004 17.5721557194 0.0126978976 0.0000000006 17.7721405695 0.0151595104 0.0000000009 17.9721254195 0.0176211236 0.0000000011 18.1721102688 0.0200827353 0.0000000013 18.3720951181 0.0225443458 0.0000000016 18.5720799687 0.0250059549 0.0000000018 18.7720648217 0.0274675639 0.0000000020 18.9720496756 0.0299291755 0.0000000022 19.1720345284 0.0323907873 0.0000000025 19.3720193807 0.0348523998 0.0000000027 19.5720042322 0.0373140131 0.0000000029 19.7719890822 0.0397756269 0.0000000031 -0.1776002672 -0.0473369208 0.0000000000 0.0223868417 -0.0450662480 0.0000000000 0.2223739525 -0.0427955752 0.0000000000 0.4223610611 -0.0405249018 0.0000000000 0.6223481719 -0.0382542280 0.0000000000 0.8223352814 -0.0359835538 0.0000000000 1.0223223909 -0.0337128795 0.0000000000 1.2223095006 -0.0314422056 0.0000000000 1.4222966087 -0.0291715319 0.0000000000 1.6222837178 -0.0269008594 0.0000000000 1.8222708263 -0.0246301871 0.0000000000 2.0222579343 -0.0223595152 0.0000000000 2.2222450423 -0.0200888440 0.0000000000 2.4222321477 -0.0178181732 0.0000000000 2.6222192550 -0.0155475037 0.0000000000 2.8222063616 -0.0132768343 0.0000000000 3.0221934678 -0.0110061651 0.0000000000 3.2221805743 -0.0087354960 0.0000000000 3.4221676783 -0.0064648274 0.0000000000 3.6221547845 -0.0041941595 0.0000000000 3.8221418902 -0.0019234919 0.0000000000 4.0221289956 0.0003471756 0.0000000000 4.2221161012 0.0026178429 0.0000000000 4.4221032039 0.0048885096 0.0000000000 4.6220903093 0.0071591755 0.0000000000 4.8220774143 0.0094298408 0.0000000000 5.0220645191 0.0117005055 0.0000000000 5.2220516244 0.0139711696 0.0000000000 5.4220387264 0.0162418327 0.0000000000 5.6220258317 0.0185124950 0.0000000000 5.8220129365 0.0207831571 0.0000000000 6.0220000413 0.0230538193 0.0000000000 6.2219871465 0.0253244816 0.0000000000 6.4219742488 0.0275951436 0.0000000000 6.6219613540 0.0298658056 0.0000000000 6.8219484588 0.03213
[...]
      <PointData Scalars="radius">
        <DataArray type="Float32" Name="radius" format="ascii">
 0.1000000000 0.1000000000 0.1000000000 0.1000000000 0.1000000000 0.1000000000 0.1000000000 0.1000000000 0.1000000000 0.1000000000 0.1000000000 0.1000000000 0.1000000000 0.1000000000 0.1000000000 0.1000000000 0.1000000000 0.1000000000 0.1000000000 0.1000000000 0.1000000000 0.1000000000 0.1000000000 0.1000000000 0.1000000000 0.1000000000 0.1000000000 0.1000000000 0.1000000000 0.1000000000 0.1000000000 0.1000000000 0.1000000000 0.1000000000 0.1000000000 0.1000000000 0.1000000000 0.1000000000 0.1000000000 0.1000000000 0.1000000000 0.1000000000 0.1000000000 0.1000000000 0.1000000000 0.1000000000 0.1000000000 0.1000000000 0.1000000000 0.1000000000 0.1000000000 0.1000000000 0.1000000000 0.1000000000 0.1000000000 0.1000000000 0.1000000000 0.1000000000 0.1000000000 0.1000000000 0.1000000000 0.1000000000 0.1000000000 0.1000000000 0.1000000000 0.1000000000 0.1000000000 0.1000000000 0.1000000000 0.1000000000 0.1000000000 0.1000000000 0.1000000000 0.1000000000 0.1000000000 0.1000000000 0.1000000000 0.1000000000 0.1000000000 0.1000000000 0.1000000000 0.1000000000 0.1000000000 0.1000000000 0.1000000000 0.1000000000 0.1000000000 0.1000000000 0.1000000000 0.1000000000 0.1000000000 0.1000000000 0.1000000000 0.1000000000 0.1000000000 0.1000000000 0.1000000000 0.1000000000 0.1000000000 0.1000000000 0.1000000000 0.1000000000 0.1000000000 0.1000000000 0.1000000000 0.1000000000 0.1000000000 0.1000000000 0.1000000000 0.1000000000 0.1000000000 0.1000000000 0.1000000000 0.1000000000 0.1000000000 0.1000000000 0.1000000000 0.1000000000 0.1000000000 0.1000000000 0.1000000000 0.1000000000 0.1000000000 0.1000000000 0.1000000000 0.1000000000 0.1000000000 0.1000000000 0.1000000000 0.1000000000 0.1000000000 0.1000000000 0.1000000000 0.1000000000 0.1000000000 0.1000000000 0.1000000000 0.1000000000 0.1000000000 0.1000000000 0.1000000000 0.1000000000 0.1000000000 0.1000000000 0.1000000000 0.1000000000 0.1000000000 0.1000000000 0.1000000000 0.1000000000 0.1000000000 0.1000000000 0.1000000000 0.1000000000 0.1000000000 0.1000000000 0.1000000000 0.1000000000 0.1000000000 0.1000000000 0.1000000000 0.1000000000 0.1000000000 0.1000000000 0.1000000000 0.1000000000 0.1000000000 0.1000000000 0.1000000000 0.1000000000 0.1000000000 0.1000000000 0.1000000000 0.1000000000 0.1000000000 0.1000000000 0.1000000000 0.1000000000 0.1000000000 0.1000000000 0.1000000000 0.1000000000 0.1000000000 0.1000000000 0.1000000000 0.1000000000 0.1000000000 0.1000000000 0.1000000000 0.1000000000 0.1000000000 0.1000000000 0.1000000000 0.1000000000 0.1000000000 0.1000000000 0.1000000000 0.1000000000 0.1000000000 0.1000000000 0.1000000000 0.1000000000 0.1000000000 0.1000000000 0.1000000000 0.1000000000 0.1000000000 0.1000000000 0.1000000000 0.1000000000 0.1000000000 0.1000000000 0.1000000000 0.1000000000 0.1000000000 0.1000000000 0.1000000000 0.1000000000 0.1000000000 0.1000000000 0.1000000000 0.1000000000 0.1000000000 0.1000000000 0.1000000000 0.1000000000 0.1000000000 0.1000000000 0.1000000000 0.1000000000 0.1000000000 0.1000000000 0.1000000000 0.1000000000 0.1000000000 0.1000000000 0.1000000000 0.1000000000 0.1000000000 0.1000000000 0.1000000000 0.1000000000 0.1000000000 0.1000000000 0.1000000000 0.1000000000 0.1000000000 0.1000000000 0.1000000000 0.1000000000 0.1000000000 0.1000000000 0.1000000000 0.1000000000 0.1000000000 0.1000000000 0.1000000000 0.1000000000 0.1000000000 0.1000000000 0.1000000000 0.1000000000 0.1000000000 0.1000000000 0.1000000000 0.1000000000 0.1000000000 0.1000000000 0.1000000000 0.1000000000 0.1000000000 0.1000000000 0.1000000000 0.1000000000 0.1000000000 0.1000000000 0.1000000000 0.1000000000 0.1000000000 0.1000000000 0.1000000000 0.1000000000 0.1000000000 0.1000000000 0.1000000000 0.1000000000 0.1000000000 0.1000000000 0.1000000000 0.1000000000 0.1000000000 0.1000000000 0.1000000000 0.1000000000 0.1000000000 0.1000000000 0.1000000000 0.1000000000 0.1000000000 0.1000000000 0.1000000000 0.1000000000 0.1000000000 0.1000000000 0.1000000000 0.1000000000 0.1000000000 0.1000000000 0.1000000000 0.1000000000 0.1000000000 0.1000000000 0.1000000000 0.1000000000 0.1000000000 0.1000000000 0.1000000000 0.1000000000 0.1000000000 0.1000000000 0.1000000000 0.1000000000 0.1000000000 0.1000000000 0.1000000000 0.1000000000 0.1000000000 0.1000000000 0.1000000000 0.1000000000 0.1000000000 0.1000000000 0.1000000000 0.1000000000 0.1000000000 0.1000000000 0.1000000000 0.1000000000 0.1000000000 0.1000000000 0.1000000000 0.1000000000 0.1000000000 0.1000000000 0.1000000000 0.1000000000 0.1000000000 0.1000000000 0.1000000000 0.1000000000 0.1000000000 0.1000000000 0.1000000000 0.1000000000 0.1000000000 0.1000000000 0.1000000000 0.1000000000 0.1000000000 0.1000000000 0.1000000000 0.1000000000 0.1000000000 0.1000000000 0.1000000000 0.1000000000 0.1000000000 0.1000000000 0.1000000000 0.1000000000 0.1000000000 0.1000000000 0.1000000000 0.1000000000 0.1000000000 0.1000000000 0.1000000000 0.1000000000 0.1000000000 0.1000000000 0.1000000000 0.1000000000 0.1000000000 0.1000000000 0.1000000000 0.1000000000 0.1000000000 0.1000000000 0.1000000000 0.1000000000 0.1000000000 0.1000000000 0.1000000000 0.1000000000 0.1000000000 0.1000000000 0.1000000000 0.1000000000 0.1000000000 0.1000000000 0.1000000000 0.1000000000 0.1000000000 0.1000000000 0.1000000000 0.1000000000 0.1000000000 0.1000000000 0.1000000000 0.1000000000 0.1000000000 0.1000000000 0.1000000000 0.1000000000 0.1000000000 0.1000000000 0.1000000000 0.1000000000 0.1000000000 0.1000000000 0.1000000000 0.1000000000 0.1000000000 0.1000000000 0.1000000000 0.1000000000 0.1000000000 0.1000000000 0.1000000000 0.1000000000 0.1000000000 0.1000000000 0.1000000000 0.1000000000 0.1000000000 0.1000000000 0.1000000000 0.1000000000 0.1000000000 0.1000000000 0.1000000000 0.1000000000 0.1000000000 0.1000000000 0.1000000000 0.1000000000 0.1000000000 0.1000000000 0.1000000000 0.1000000000 0.1000000000 0.1000000000 0.1000000000 0.1000000000 0.1000000000 0.1000000000 0.1000000000 0.1000000000 0.1000000000 0.1000000000 0.1000000000 0.1000000000 0.1000000000 0.1000000000 0.1000000000 0.1000000000 0.1000000000 0.1000000000 0.1000000000 0.1000000000 0.1000000000 0.1000000000 0.1000000000 0.1000000000 0.1000000000 0.1000000000 0.1000000000 0.1000000000 0.1000000000 0.1000000000 0.1000000000 0.1000000000 0.1000000000 0.1000000000 0.1000000000 0.1000000000 0.1000000000 0.1000000000 0.1000000000 0.1000000000 0.1000000000 0.1000000000 0.1000000000 0.1000000000 0.1000000000 0.1000000000 0.1000000000 0.1000000000 0.1000000000 0.1000000000 0.1000000000 0.1000000000 0.1000000000 0.1000000000 0.1000000000 0.1000000000 0.1000000000 0.1000000000 0.1000000000 0.1000000000 0.1000000000 0.1000000000 0.1000000000 0.1000000000 0.1000000000 0.1000000000 0.1000000000 0.1000000000 0.1000000000 0.1000000000 0.1000000000 0.1000000000 0.1000000000 0.1000000000 0.1000000000 0.1000000000 0.1000000000 0.1000000000 0.1000000000 0.1000000000 0.1000000000 0.1000000000 0.1000000000 0.1000000000 0.1000000000 0.1000000000 0.1000000000 0.1000000000 0.1000000000 0.1000000000 0.1000000000 0.1000000000 0.1000000000 0.1000000000 0.1000000000 0.1000000000 0.1000000000 0.1000000000 0.1000000000 0.1000000000 0.1000000000 0.1000000000 0.1000000000 0.1000000000 0.1000000000 0.1000000000 0.1000000000 0.1000000000 0.1000000000 0.1000000000 0.1000000000 0.1000000000 0.1000000000 0.1000000000 0.1000000000 0.1000000000 0.1000000000 0.1000000000 0.1000000000 0.1000000000 0.1000000000 0.1000000000 0.1000000000 0.1000000000 0.1000000000 0.1000000000 0.1000000000 0.1000000000 0.1000000000 0.1000000000 0.1000000000 0.1000000000 0.1000000000 0.1000000000 0.1000000000 0.1000000000 0.1000000000 0.1000000000 0.1000000000 0.1000000000 0.1000000000 0.1000000000 0.1000000000 0.1000000000 0.1000000000 0.1000000000 0.1000000000 0.1000000000 0.1000000000 0.1000000000 0.1000000000 0.1000000000 0.1000000000 0.1000000000 0.1000000000 0.1000000000 0.1000000000 0.1000000000 0.1000000000 0.1000000000 0.1000000000 0.1000000000 0.1000000000 0.1000000000 0.1000000000 0.1000000000 0.1000000000 0.1000000000 0.1000000000 0.1000000000 0.1000000000 0.1000000000 0.1000000000 0.1000000000 0.1000000000 0.1000000000 0.1000000000 0.1000000000 0.1000000000 0.1000000000 0.1000000000 0.1000000000 0.1000000000 0.1000000000 0.1000000000 0.1000000000 0.1000000000 0.1000000000 0.1000000000 0.1000000000 0.1000000000 0.1000000000 0.1000000000 0.1000000000 0.1000000000 0.1000000000 0.1000000000 0.1000000000 0.1000000000 0.1000000000 0.1000000000 0.1000000000 0.1000000000 0.1000000000 0.1000000000 0.1000000000 0.1000000000 0.1000000000 0.1000000000 0.1000000000 0.1000000000 0.1000000000 0.1000000000 0.1000000000 0.1000000000 0.1000000000 0.1000000000 0.1000000000 0.1000000000 0.1000000000 0.1000000000 0.1000000000 0.1000000000 0.1000000000 0.1000000000 0.1000000000 0.1000000000 0.1000000000 0.1000000000 0.1000000000 0.1000000000 0.1000000000 0.1000000000 0.1000000000 0.1000000000 0.1000000000 0.1000000000 0.1000000000 0.1000000000 0.1000000000 0.1000000000 0.1000000000 0.1000000000 0.1000000000 0.1000000000 0.1000000000 0.1000000000 0.1000000000 0.1000000000 0.1000000000 0.1000000000 0.1000000000 0.1000000000 0.1000000000 0.1000000000 0.1000000000 0.1000000000 0.1000000000 0.1000000000 0.1000000000 0.1000000000 0.1000000000 0.1000000000 0.1000000000 0.1000000000 0.1000000000 0.1000000000 0.1000000000 0.1000000000 0.1000000000 0.1000000000 0.1000000000 0.1000000000 0.1000000000 0.1000000000 0.1000000000 0.1000000000 0.1000000000 0.1000000000 0.1000000000 0.1000000000 0.1000000000 0.1000000000 0.1000000000 0.1000000000 0.1000000000 0.1000000000 0.1000000000 0.1000000000 0.1000000000 0.1000000000 0.1000000000 0.1000000000 0.1000000000 0.1000000000 0.1000000000 0.1000000000 0.1000000000 0.1000000000 0.1000000000 0.1000000000 0.1000000000 0.1000000000 0.1000000000 0.1000000000 0.1000000000 0.1000000000 0.1000000000 0.1000000000 0.1000000000 0.1000000000 0.1000000000 0.1000000000 0.1000000000 0.1000000000 0.1000000000 0.1000000000 0.1000000000 0.1000000000 0.1000000000 0.1000000000 0.1000000000 0.1000000000 0.1000000000 0.1000000000 0.1000000000 0.1000000000 0.1000000000 0.1000000000 0.1000000000 0.1000000000 0.1000000000 0.1000000000 0.1000000000 0.1000000000 0.1000000000 0.1000000000 0.1000000000 0.1000000000 0.1000000000 0.1000000000 0.1000000000 0.1000000000 0.1000000000 0.1000000000 0.1000000000 0.1000000000 0.1000000000 0.1000000000 0.1000000000 0.1000000000 0.1000000000 0.1000000000 0.1000000000 0.1000000000 0.1000000000 0.1000000000 0.1000000000 0.1000000000 0.1000000000 0.1000000000 0.1000000000 0.1000000000 0.1000000000 0.1000000000 0.1000000000 0.1000000000 0.1000000000 0.1000000000 0.1000000000 0.1000000000 0.1000000000 0.1000000000 0.1000000000 0.1000000000 0.1000000000 0.1000000000 0.1000000000 0.1000000000 0.1000000000 0.1000000000 0.1000000000 0.1000000000 0.1000000000 0.1000000000 0.1000000000 0.1000000000 0.1000000000 0.1000000000 0.1000000000 0.1000000000 0.1000000000 0.1000000000 0.1000000000 0.1000000000 0.1000000000 0.1000000000 0.1000000000 0.1000000000 0.1000000000 0.1000000000 0.1000000000 0.1000000000 0.1000000000 0.1000000000 0.1000000000 0.1000000000 0.1000000000 0.1000000000 0.1000000000 0.1000000000 0.1000000000 0.1000000000 0.1000000000 0.1000000000 0.1000000000 0.1000000000 0.1000000000 0.1000000000 0.1000000000 0.1000000000 0.1000000000 0.1000000000 0.1000000000 0.1000000000 0.1000000000 0.1000000000 0.1000000000 0.1000000000 0.1000000000 0.1000000000 0.1000000000 0.1000000000 0.1000000000 0.1000000000 0.1000000000 0.1000000000 0.1000000000 0.1000000000 0.1000000000 0.1000000000 0.1000000000 0.1000000000 0.1000000000 0.1000000000 0.1000000000 0.1000000000 0.1000000000 0.1000000000 0.1000000000 0.1000000000 0.1000000000 0.1000000000 0.1000000000 0.1000000000 0.1000000000 0.1000000000 0.1000000000 0.1000000000 0.1000000000 0.1000000000 0.1000000000 0.1000000000 0.1000000000 0.1000000000 0.1000000000 0.1000000000 0.1000000000 0.1000000000 0.1000000000 0.1000000000 0.1000000000 0.1000000000 0.1000000000 0.1000000000 0.1000000000 0.1000000000 0.1000000000 0.1000000000 0.1000000000 0.1000000000 0.1000000000 0.1000000000 0.1000000000 0.1000000000 0.1000000000 0.1000000000 0.1000000000 0.1000000000 0.1000000000 0.1000000000 0.1000000000 0.1000000000 0.1000000000 0.1000000000 0.1000000000 0.1000000000 0.1000000000 0.1000000000 0.1000000000 0.1000000000 0.1000000000 0.1000000000 0.1000000000 0.1000000000 0.1000000000 0.1000000000 0.1000000000 0.1000000000 0.1000000000 0.1000000000 0.1000000000 0.1000000000 0.1000000000 0.1000000000 0.1000000000 0.1000000000 0.1000000000 0.1000000000 0.1000000000 0.1000000000 0.1000000000 0.1000000000 0.1000000000 0.1000000000 0.1000000000 0.1000000000 0.1000000000 0.1000000000 0.1000000000 0.1000000000 0.1000000000 0.1000000000 0.1000000000 0.1000000000 0.1000000000 0.1000000000 0.1000000000 0.1000000000 0.1000000000 0.1000000000 0.1000000000 0.1000000000 0.1000000000 0.1000000000 0.1000000000 0.1000000000 0.1000000000 0.1000000000 0.1000000000 0.1000000000 0.1000000000 0.1000000000 0.1000000000 0.1000000000 0.1000000000 0.1000000000 0.1000000000 0.1000000000 0.1000000000 0.1000000000 0.1000000000 0.1000000000 0.1000000000 0.1000000000 0.1000000000 0.1000000000 0.1000000000 0.1000000000 0.1000000000 0.1000000000 0.1000000000 0.1000000000 0.1000000000 0.1000000000 0.1000000000 0.1000000000 0.1000000000 0.1000000000 0.1000000000 0.1000000000 0.1000000000 0.1000000000 0.1000000000 0.1000000000 0.1000000000 0.1000000000 0.1000000000 0.1000000000 0.1000000000 0.1000000000 0.1000000000 0.1000000000 0.1000000000 0.1000000000 0.1000000000 0.1000000000 0.1000000000 0.1000000000 0.1000000000 0.1000000000 0.1000000000 0.1000000000 0.1000000000 0.1000000000 0.1000000000 0.1000000000 0.1000000000 0.1000000000 0.1000000000 0.1000000000 0.1000000000 0.1000000000 0.1000000000 0.1000000000 0.1000000000 0.1000000000 0.1000000000 0.1000000000 0.1000000000 0.1000000000 0.1000000000 0.1000000000 0.1000000000 0.1000000000 0.1000000000 0.1000000000 0.1000000000 0.1000000000 0.1000000000 0.1000000000 0.1000000000 0.1000000000 0.1000000000 0.1000000000 0.1000000000 0.1000000000 0.1000000000 0.1000000000 0.1000000000 0.1000000000 0.1000000000 0.1000000000 0.1000000000 0.1000000000 0.1000000000 0.1000000000 0.1000000000 0.1000000000 0.1000000000 0.1000000000 0.1000000000 0.1000000000 0.1000000000 0.1000000000 0.1000000000 0.1000000000 0.1000000000 0.1000000000 0.1000000000 0.1000000000 0.1000000000 0.1000000000 0.1000000000 0.1000000000 0.1000000000 0.1000000000 0.1000000000 0.1000000000 0.1000000000 0.1000000000 0.1000000000 0.1000000000 0.1000000000 0.1000000000 0.1000000000 0.1000000000 0.1000000000 0.1000000000 0.1000000000 0.1000000000 0.1000000000 0.1000000000 0.1000000000 0.1000000000 0.1000000000 0.1000000000 0.1000000000 0.1000000000 0.1000000000 0.1000000000 0.1000000000 0.1000000000 0.1000000000 0.1000000000 0.1000000000 0.1000000000 0.1000000000 0.1000000000 0.1000000000 0.1000000000 0.1000000000 0.1000000000 0.1000000000 0.1000000000 0.1000000000 0.1000000000 0.1000000000 0.1000000000 0.1000000000 0.1000000000 0.1000000000 0.1000000000 0.1000000000 0.1000000000 0.1000000000 0.1000000000 0.1000000000 0.1000000000 0.1000000000 0.1000000000 0.1000000000 0.1000000000 0.1000000000 0.1000000000 0.1000000000 0.1000000000 0.1000000000 0.1000000000 0.1000000000 0.1000000000 0.1000000000 0.1000000000 0.1000000000 0.1000000000 0.1000000000 0.1000000000 0.1000000000 0.1000000000 0.1000000000 0.1000000000 0.1000000000 0.1000000000 0.1000000000 0.1000000000 0.1000000000 0.1000000000 0.1000000000 0.1000000000 0.1000000000 0.1000000000 0.1000000000 0.1000000000 0.1000000000 0.1000000000 0.1000000000 0.1000000000 0.1000000000 0.1000000000 0.1000000000 0.1000000000 0.1000000000 0.1000000000 0.1000000000 0.1000000000 0.1000000000 0.1000000000 0.1000000000 0.1000000000 0.1000000000 0.1000000000 0.1000000000 0.1000000000 0.1000000000 0.1000000000 0.1000000000 0.1000000000 0.1000000000 0.1000000000 0.1000000000 0.1000000000 0.1000000000 0.1000000000 0.1000000000 0.1000000000 0.1000000000 0.1000000000 0.1000000000 0.1000000000 0.1000000000 0.1000000000 0.1000000000 0.1000000000 0.1000000000 0.1000000000 0.1000000000 0.1000000000 0.1000000000 0.1000000000 0.1000000000 0.1000000000 0.1000000000 0.1000000000 0.1000000000 0.1000000000 0.1000000000 0.1000000000 0.1000000000 0.1000000000 0.1000000000 0.1000000000 0.1000000000 0.1000000000 0.1000000000 0.1000000000 0.1000000000 0.1000000000 0.1000000000 0.1000000000 0.1000000000 0.1000000000 0.1000000000 0.1000000000 0.1000000000 0.1000000000 0.1000000000 0.1000000000 0.1000000000 0.1000000000 0.1000000000 0.1000000000 0.1000000000 0.1000000000 0.1000000000 0.1000000000 0.1000000000 0.1000000000 0.1000000000 0.1000000000 0.1000000000 0.1000000000 0.1000000000 0.1000000000 0.1000000000 0.1000000000 0.1000000000 0.1000000000 0.1000000000 0.1000000000 0.1000000000 0.1000000000 0.1000000000 0.1000000000 0.1000000000 0.1000000000 0.1000000000 0.1000000000 0.1000000000 0.1000000000 0.1000000000 0.1000000000 0.1000000000 0.1000000000 0.1000000000 0.1000000000 0.1000000000 0.1000000000 0.1000000000 0.1000000000 0.1000000000 0.1000000000 0.1000000000 0.1000000000 0.1000000000 0.1000000000 0.1000000000 0.1000000000 0.1000000000 0.1000000000 0.1000000000 0.1000000000 0.1000000000 0.1000000000 0.1000000000 0.1000000000 0.1000000000 0.1000000000 0.1000000000 0.1000000000 0.1000000000 0.1000000000 0.1000000000 0.1000000000 0.1000000000 0.1000000000 0.1000000000 0.1000000000 0.1000000000 0.1000000000 0.1000000000 0.1000000000 0.1000000000 0.1000000000 0.1000000000 0.1000000000 0.1000000000 0.1000000000 0.1000000000 0.1000000000 0.1000000000 0.1000000000 0.1000000000 0.1000000000 0.1000000000 0.1000000000 0.1000000000 0.1000000000 0.1000000000 0.1000000000 0.1000000000 0.1000000000 0.1000000000 0.1000000000 0.1000000000 0.1000000000 0.1000000000 0.1000000000 0.1000000000 0.1000000000 0.1000000000 0.1000000000 0.1000000000 0.1000000000 0.1000000000 0.1000000000 0.1000000000 0.1000000000 0.1000000000 0.1000000000 0.1000000000 0.1000000000 0.1000000000 0.1000000000 0.1000000000 0.1000000000 0.1000000000 0.1000000000 0.1000000000 0.1000000000 0.1000000000 0.1000000000 0.1000000000 0.1000000000 0.1000000000 0.1000000000 0.1000000000 0.1000000000 0.1000000000 0.1000000000 0.1000000000 0.1000000000 0.1000000000 0.1000000000 0.1000000000 0.1000000000 0.1000000000 0.1000000000 0.1000000000 0.1000000000 0.1000000000 0.1000000000 0.1000000000 0.1000000000 0.1000000000 0.1000000000 0.1000000000 0.1000000000 0.1000000000 0.1000000000 0.1000000000 0.1000000000 0.1000000000 0.1000000000 0.1000000000 0.1000000000 0.1000000000 0.1000000000 0.1000000000 0.1000000000 0.1000000000 0.1000000000 0.1000000000 0.1000000000 0.1000000000 0.1000000000 0.1000000000 0.1000000000 0.1000000000 0.1000000000 0.1000000000 0.1000000000 0.1000000000 0.1000000000 0.1000000000 0.1000000000 0.1000000000 0.1000000000 0.1000000000 0.1000000000 0.1000000000 0.1000000000 0.1000000000 0.1000000000 0.1000000000 0.1000000000 0.1000000000 0.1000000000 0.1000000000 0.1000000000 0.1000000000 0.1000000000 0.1000000000 0.1000000000 0.1000000000 0.1000000000 0.1000000000 0.1000000000 0.1000000000 0.1000000000 0.1000000000 0.1000000000 0.1000000000 0.1000000000 0.1000000000 0.1000000000 0.1000000000 0.1000000000 0.1000000000 0.1000000000 0.1000000000 0.1000000000 0.1000000000 0.1000000000 0.1000000000 0.1000000000 0.1000000000 0.1000000000 0.1000000000 0.1000000000 0.1000000000 0.1000000000 0.1000000000 0.1000000000 0.1000000000 0.1000000000 0.1000000000 0.1000000000 0.1000000000 0.1000000000 0.1000000000 0.1000000000 0.1000000000 0.1000000000 0.1000000000 0.1000000000 0.1000000000 0.1000000000 0.1000000000 0.1000000000 0.1000000000 0.1000000000 0.1000000000 0.1000000000 0.1000000000 0.1000000000 0.1000000000 0.1000000000 0.1000000000 0.1000000000 0.1000000000 0.10000000