<?xml version="1.0"?>
<VTKFile type="UnstructuredGrid" version="0.1" byte_order="LittleEndian">
  <UnstructuredGrid>
    <FieldData>
      <DataArray type="Float32" Name="TIME"  NumberOfTuples="1" format="ascii"> 3.4000000000 </DataArray>
      <DataArray type="Int32"   Name="STEP"  NumberOfTuples="1" format="ascii"> 850000 </DataArray>
    </FieldData>
    <Piece NumberOfPoints="11600" NumberOfCells="11600">
      <Points>
        <DataArray type="Float32" NumberOfComponents="3" format="ascii">
 -0.6292244047 -1.0600378555 -0.0000044117 -0.4292979356 -1.0546150760 -0.0000043989 -0.2293714629 -1.0491922970 -0.0000043874 -0.0294449880 -1.0437695180 -0.0000043719 0.1704814875 -1.0383467380 -0.0000043479 0.3704079619 -1.0329239578 -0.0000043101 0.5703344366 -1.0275011762 -0.0000042532 0.7702609116 -1.0220783950 -0.0000041776 0.9701873952 -1.0166556147 -0.0000040688 1.1701138710 -1.0112328336 -0.0000039613 1.3700403471 -1.0058100528 -0.0000038575 1.5699668229 -1.0003872712 -0.0000037660 1.7698932982 -0.9949644902 -0.0000036878 1.9698197887 -0.9895417059 -0.0000036210 2.1697462644 -0.9841189214 -0.0000035703 2.3696727405 -0.9786961393 -0.0000035278 2.5695992172 -0.9732733584 -0.0000034939 2.7695256943 -0.9678505802 -0.0000034696 2.9694521952 -0.9624278003 -0.0000034672 3.1693786739 -0.9570050178 -0.0000034698 3.3693051531 -0.9515822372 -0.0000034766 3.5692316330 -0.9461594581 -0.0000034824 3.7691581129 -0.9407366828 -0.0000034817 3.9690846321 -0.9353139009 -0.0000034623 4.1690111132 -0.9298911114 -0.0000034245 4.3689375957 -0.9244683226 -0.0000033712 4.5688640771 -0.9190455329 -0.0000033013 4.7687905568 -0.9136227456 -0.0000032201 4.9687170636 -0.9081999560 -0.0000031234 5.1686435438 -0.9027771629 -0.0000030317 5.3685700256 -0.8973543707 -0.0000029437 5.5684965084 -0.8919315777 -0.0000028586 5.7684229896 -0.8865087849 -0.0000027718 5.9683494963 -0.8810859885 -0.0000026673 6.1682759756 -0.8756631943 -0.0000025575 6.3682024569 -0.8702404025 -0.0000024353 6.5681289385 -0.8648176098 -0.0000022980 6.7680554185 -0.8593948192 -0.0000021470 6.9679819328 -0.8539720247 -0.0000019580 7.1679084133 -0.8485492262 -0.0000017807 7.3678348946 -0.8431264280 -0.0000016024 7.5677613746 -0.8377036289 -0.0000014286 7.7676878529 -0.8322808321 -0.0000012634 7.9676143567 -0.8268580332 -0.0000011182 8.1675408341 -0.8214352327 -0.0000009906 8.3674673118 -0.8160124340 -0.0000008758 8.5673937898 -0.8105896355 -0.0000007730 8.7673202673 -0.8051668370 -0.0000006791 8.9672467659 -0.7997440323 -0.0000005989 9.1671732408 -0.7943212254 -0.0000005221 9.3670997151 -0.7888984213 -0.0000004493 9.5670261899 -0.7834756181 -0.0000003823 9.7669526645 -0.7780528146 -0.0000003245 9.9668791488 -0.7726300073 -0.0000002828 10.1668056186 -0.7672071972 -0.0000002701 10.3667320870 -0.7617843880 -0.0000002673 10.5666585544 -0.7563615790 -0.0000002687 10.7665850218 -0.7509387705 -0.0000002688 10.9665114847 -0.7455159626 -0.0000002502 11.1664379508 -0.7400931552 -0.0000002303 11.3663644158 -0.7346703484 -0.0000002046 11.5662908808 -0.7292475429 -0.0000001775 11.7662173469 -0.7238247387 -0.0000001519 11.9661438087 -0.7184019351 -0.0000001368 12.1660702747 -0.7129791328 -0.0000001196 12.3659967369 -0.7075563335 -0.0000001192 12.5659232038 -0.7021335336 -0.0000001313 12.7658496724 -0.6967107319 -0.0000001544 12.9657761433 -0.6912879262 -0.0000002039 13.1657026174 -0.6858651178 -0.0000002529 13.3656291023 -0.6804422968 -0.0000003113 13.6260784050 -0.6592842151 0.0000000000 13.8260761109 -0.6602420071 0.0000000000 14.0260738168 -0.6611997989 0.0000000000 14.2260715253 -0.6621575902 0.0000000000 14.4260692313 -0.6631153823 0.0000000000 14.6260669384 -0.6640731737 0.0000000000 14.8260646454 -0.6650309658 0.0000000000 15.0260623516 -0.6659887575 0.0000000000 15.2260600596 -0.6669465492 0.0000000000 15.4260577658 -0.6679043411 0.0000000000 15.6260554732 -0.6688621329 0.0000000000 15.8260531802 -0.6698199242 0.0000000000 16.1330837053 -0.4970508935 -0.0000007703 16.3329569715 -0.4899322248 0.0000024873 16.5328302321 -0.4828135572 0.0000019845 16.7327034968 -0.4756948839 0.0000009902 16.9325767605 -0.4685762122 0.0000025226 17.1324500247 -0.4614575354 0.0000032240 17.3323232889 -0.4543388605 0.0000028730 17.5321965458 -0.4472201849 0.0000036681 17.7320698111 -0.4401015175 0.0000038739 17.9319430793 -0.4329828588 0.0000016740 18.1318163523 -0.4258641956 0.0000032348 18.3316896287 -0.4187455230 0.0000025877 18.5315629287 -0.4116268324 0.0000041911 18.7314361977 -0.4045081291 0.0000030599 18.9313094640 -0.3973894317 0.0000030601 19.1311827305 -0.3902707351 0.0000024062 19.3310559979 -0.3831520370 0.0000017288 -0.5339574347 -0.8841850652 -0.0000041115 -0.3340309647 -0.8787622866 -0.0000041013 -0.1341044907 -0.8733395079 -0.0000040911 0.0658219844 -0.8679167287 -0.0000040758 0.2657484584 -0.8624939487 -0.0000040505 0.4656749328 -0.8570711677 -0.0000040094 0.6656014080 -0.8516483861 -0.0000039485 0.8655278866 -0.8462256056 -0.0000038666 1.0654543658 -0.8408028250 -0.0000037677 1.2653808424 -0.8353800442 -0.0000036673 1.4653073187 -0.8299572629 -0.0000035751 1.6652337954 -0.8245344810 -0.0000034952 1.8651602758 -0.8191116991 -0.0000034273 2.0650867568 -0.8136889144 -0.0000033726 2.2650132349 -0.8082661314 -0.0000033267 2.4649397133 -0.8028433499 -0.0000032881 2.6648661931 -0.7974205700 -0.0000032576 2.8647926786 -0.7919977921 -0.0000032383 3.0647191647 -0.7865750104 -0.0000032330 3.2646456466 -0.7811522293 -0.0000032347 3.4645721287 -0.7757294495 -0.0000032392 3.6644986128 -0.7703066719 -0.0000032412 3.8644251042 -0.7648838956 -0.0000032340 4.0643515958 -0.7594611084 -0.0000032090 4.2642780806 -0.7540383198 -0.0000031686 4.4642045639 -0.7486155302 -0.0000031124 4.6641310477 -0.7431927409 -0.0000030414 4.8640575365 -0.7377699536 -0.0000029579 5.0639840251 -0.7323471613 -0.0000028660 5.2639105084 -0.7269243693 -0.0000027743 5.4638369916 -0.7215015771 -0.0000026859 5.6637634761 -0.7160787840 -0.0000025993 5.8636899665 -0.7106559902 -0.0000025097 6.0636164566 -0.7052331942 -0.0000024126 6.2635429404 -0.6998104013 -0.0000023081 6.4634694233 -0.6943876091 -0.0000021926 6.6633959073 -0.6889648167 -0.0000020628 6.8633223984 -0.6835420255 -0.0000019155 7.0632488892 -0.6781192274 -0.0000017516 7.2631753726 -0.6726964295 -0.0000015825 7.4631018544 -0.6672736306 -0.0000014124 7.6630283366 -0.6618508319 -0.0000012460 7.8629548237 -0.6564280349 -0.0000010895 8.0628813102 -0.6510052341 -0.0000009511 8.2628077907 -0.6455824348 -0.0000008269 8.4627342702 -0.6401596361 -0.0000007152 8.6626607493 -0.6347368371 -0.0000006142 8.8625872322 -0.6293140366 -0.0000005228 9.0625137143 -0.6238912295 -0.0000004402 9.2624401916 -0.6184684241 -0.0000003625 9.4623666674 -0.6130456205 -0.0000002906 9.6622931426 -0.6076228170 -0.0000002284 9.8622196190 -0.6022000121 -0.0000001821 10.0621460930 -0.5967772017 -0.0000001629 10.2620725628 -0.5913543921 -0.0000001610 10.4619990312 -0.5859315828 -0.0000001666 10.6619254983 -0.5805087738 -0.0000001719 10.8618519645 -0.5750859651 -0.0000001693 11.0617784300 -0.5696631575 -0.0000001545 11.2617048954 -0.5642403505 -0.0000001327 11.4616313611 -0.5588175448 -0.0000001073 11.6615578265 -0.5533947399 -0.0000000816 11.8614842921 -0.5479719357 -0.0000000582 12.0614107573 -0.5425491333 -0.0000000375 12.2613372225 -0.5371263321 -0.0000000218 12.4612636881 -0.5317035328 -0.0000000191 12.6611901541 -0.5262807331 -0.0000000288 12.8611166221 -0.5208579298 -0.0000000535 13.0610430918 -0.5154351245 -0.0000000947 13.2609695627 -0.5100123142 -0.0000001436 13.5269090213 -0.4856022277 0.0000000000 13.7269067292 -0.4865600178 0.0000000000 13.9269044361 -0.4875178093 0.0000000000 14.1269021430 -0.4884756015 0.0000000000 14.3268998499 -0.4894333931 0.0000000000 14.5268975569 -0.4903911850 0.0000000000 14.7268952636 -0.4913489769 0.0000000000 14.9268929703 -0.4923067685 0.0000000000 15.1268906776 -0.4932645607 0.0000000000 15.3268883844 -0.4942223520 0.0000000000 15.5268860916 -0.4951801436 0.0000000000 15.7268837958 -0.4961379375 0.0000000000 16.0269821224 -0.3275148997 0.0000030686 16.2268553895 -0.3203962307 0.0000020168 16.4267286541 -0.3132775618 0.0000029059 16.6266019159 -0.3061588899 0.0000011843 16.8264751790 -0.2990402174 0.0000013501 17.0263484421 -0.2919215427 0.0000020538 17.2262217053 -0.2848028663 0.0000020905 17.4260949684 -0.2776841896 0.0000033755 17.6259682331 -0.2705655192 0.0000023564 17.8258414996 -0.2634468555 0.0000022190 18.0257147681 -0.2563281961 0.0000033717 18.2255880389 -0.2492095289 0.0000019239 18.4254613148 -0.2420908485 0.0000030617 18.6253345884 -0.2349721501 0.0000036483 18.8252078569 -0.2278534507 0.0000025714 19.0250811239 -0.2207347547 0.0000021557 19.2249543907 -0.2136160587 0.0000025054 19.4248276586 -0.2064973607 0.0000022364 -0.6386169356 -0.7137550537 -0.0000038304 -0.4386904653 -0.7083322749 -0.0000038215 -0.2387639924 -0.7029094966 -0.0000038126 -0.0388375189 -0.6974867179 -0.0000038033 0.1610889554 -0.6920639385 -0.0000037870 0.3610154292 -0.6866411581 -0.0000037595 0.5609419039 -0.6812183772 -0.0000037145 0.7608683796 -0.6757955960 -0.0000036507 0.9607948605 -0.6703728155 -0.0000035664 1.1607213372 -0.6649500351 -0.0000034731 1.3606478138 -0.6595272540 -0.0000033825 1.5605742904 -0.6541044723 -0.0000033018 1.7605007669 -0.6486816903 -0.0000032322 1.9604272503 -0.6432589066 -0.0000031752 2.1603537283 -0.6378361240 -0.0000031273 2.3602802073 -0.6324133419 -0.0000030855 2.5602066870 -0.6269905613 -0.0000030499 2.7601331665 -0.6215677817 -0.0000030217 2.9600596577 -0.6161450026 -0.0000030047 3.1599861385 -0.6107222216 -0.0000029990 3.3599126207 -0.6052994413 -0.0000029993 3.5598391036 -0.5998766624 -0.0000030013 3.7597655860 -0.5944538844 -0.0000029999 3.9596920830 -0.5890311042 -0.0000029872 4.1596185654 -0.5836083168 -0.0000029593 4.3595450489 -0.5781855277 -0.0000029175 4.5594715323 -0.5727627381 -0.0000028600 4.7593980146 -0.5673399485 -0.0000027887 4.9593245099 -0.5619171593 -0.0000027030 5.1592509916 -0.5564943676 -0.0000026104 5.3591774747 -0.551071
[...]
      <PointData Scalars="radius">
        <DataArray type="Float32" Name="radius" format="ascii">
 0.1000000000 0.1000000000 0.1000000000 0.1000000000 0.1000000000 0.1000000000 0.1000000000 0.1000000000 0.1000000000 0.1000000000 0.1000000000 0.1000000000 0.1000000000 0.1000000000 0.1000000000 0.1000000000 0.1000000000 0.1000000000 0.1000000000 0.1000000000 0.1000000000 0.1000000000 0.1000000000 0.1000000000 0.1000000000 0.1000000000 0.1000000000 0.1000000000 0.1000000000 0.1000000000 0.1000000000 0.1000000000 0.1000000000 0.1000000000 0.1000000000 0.1000000000 0.1000000000 0.1000000000 0.1000000000 0.1000000000 0.1000000000 0.1000000000 0.1000000000 0.1000000000 0.1000000000 0.1000000000 0.1000000000 0.1000000000 0.1000000000 0.1000000000 0.1000000000 0.1000000000 0.1000000000 0.1000000000 0.1000000000 0.1000000000 0.1000000000 0.1000000000 0.1000000000 0.1000000000 0.1000000000 0.1000000000 0.1000000000 0.1000000000 0.1000000000 0.1000000000 0.1000000000 0.1000000000 0.1000000000 0.1000000000 0.1000000000 0.1000000000 0.1000000000 0.1000000000 0.1000000000 0.1000000000 0.1000000000 0.1000000000 0.1000000000 0.1000000000 0.1000000000 0.1000000000 0.1000000000 0.1000000000 0.1000000000 0.1000000000 0.1000000000 0.1000000000 0.1000000000 0.1000000000 0.1000000000 0.1000000000 0.1000000000 0.1000000000 0.1000000000 0.1000000000 0.1000000000 0.1000000000 0.1000000000 0.1000000000 0.1000000000 0.1000000000 0.1000000000 0.1000000000 0.1000000000 0.1000000000 0.1000000000 0.1000000000 0.1000000000 0.1000000000 0.1000000000 0.1000000000 0.1000000000 0.1000000000 0.1000000000 0.1000000000 0.1000000000 0.1000000000 0.1000000000 0.1000000000 0.1000000000 0.1000000000 0.1000000000 0.1000000000 0.1000000000 0.1000000000 0.1000000000 0.1000000000 0.1000000000 0.1000000000 0.1000000000 0.1000000000 0.1000000000 0.1000000000 0.1000000000 0.1000000000 0.1000000000 0.1000000000 0.1000000000 0.1000000000 0.1000000000 0.1000000000 0.1000000000 0.1000000000 0.1000000000 0.1000000000 0.1000000000 0.1000000000 0.1000000000 0.1000000000 0.1000000000 0.1000000000 0.1000000000 0.1000000000 0.1000000000 0.1000000000 0.1000000000 0.1000000000 0.1000000000 0.1000000000 0.1000000000 0.1000000000 0.1000000000 0.1000000000 0.1000000000 0.1000000000 0.1000000000 0.1000000000 0.1000000000 0.1000000000 0.1000000000 0.1000000000 0.1000000000 0.1000000000 0.1000000000 0.1000000000 0.1000000000 0.1000000000 0.1000000000 0.1000000000 0.1000000000 0.1000000000 0.1000000000 0.1000000000 0.1000000000 0.1000000000 0.1000000000 0.1000000000 0.1000000000 0.1000000000 0.1000000000 0.1000000000 0.1000000000 0.1000000000 0.1000000000 0.1000000000 0.1000000000 0.1000000000 0.1000000000 0.1000000000 0.1000000000 0.1000000000 0.1000000000 0.1000000000 0.1000000000 0.1000000000 0.1000000000 0.1000000000 0.1000000000 0.1000000000 0.1000000000 0.1000000000 0.1000000000 0.1000000000 0.1000000000 0.1000000000 0.1000000000 0.1000000000 0.1000000000 0.1000000000 0.1000000000 0.1000000000 0.1000000000 0.1000000000 0.1000000000 0.1000000000 0.1000000000 0.1000000000 0.1000000000 0.1000000000 0.1000000000 0.1000000000 0.1000000000 0.1000000000 0.1000000000 0.1000000000 0.1000000000 0.1000000000 0.1000000000 0.1000000000 0.1000000000 0.1000000000 0.1000000000 0.1000000000 0.1000000000 0.1000000000 0.1000000000 0.1000000000 0.1000000000 0.1000000000 0.1000000000 0.1000000000 0.1000000000 0.1000000000 0.1000000000 0.1000000000 0.1000000000 0.1000000000 0.1000000000 0.1000000000 0.1000000000 0.1000000000 0.1000000000 0.1000000000 0.1000000000 0.1000000000 0.1000000000 0.1000000000 0.1000000000 0.1000000000 0.1000000000 0.1000000000 0.1000000000 0.1000000000 0.1000000000 0.1000000000 0.1000000000 0.1000000000 0.1000000000 0.1000000000 0.1000000000 0.1000000000 0.1000000000 0.1000000000 0.1000000000 0.1000000000 0.1000000000 0.1000000000 0.1000000000 0.1000000000 0.1000000000 0.1000000000 0.1000000000 0.1000000000 0.1000000000 0.1000000000 0.1000000000 0.1000000000 0.1000000000 0.1000000000 0.1000000000 0.1000000000 0.1000000000 0.1000000000 0.1000000000 0.1000000000 0.1000000000 0.1000000000 0.1000000000 0.1000000000 0.1000000000 0.1000000000 0.1000000000 0.1000000000 0.1000000000 0.1000000000 0.1000000000 0.1000000000 0.1000000000 0.1000000000 0.1000000000 0.1000000000 0.1000000000 0.1000000000 0.1000000000 0.1000000000 0.1000000000 0.1000000000 0.1000000000 0.1000000000 0.1000000000 0.1000000000 0.1000000000 0.1000000000 0.1000000000 0.1000000000 0.1000000000 0.1000000000 0.1000000000 0.1000000000 0.1000000000 0.1000000000 0.1000000000 0.1000000000 0.1000000000 0.1000000000 0.1000000000 0.1000000000 0.1000000000 0.1000000000 0.1000000000 0.1000000000 0.1000000000 0.1000000000 0.1000000000 0.1000000000 0.1000000000 0.1000000000 0.1000000000 0.1000000000 0.1000000000 0.1000000000 0.1000000000 0.1000000000 0.1000000000 0.1000000000 0.1000000000 0.1000000000 0.1000000000 0.1000000000 0.1000000000 0.1000000000 0.1000000000 0.1000000000 0.1000000000 0.1000000000 0.1000000000 0.1000000000 0.1000000000 0.1000000000 0.1000000000 0.1000000000 0.1000000000 0.1000000000 0.1000000000 0.1000000000 0.1000000000 0.1000000000 0.1000000000 0.1000000000 0.1000000000 0.1000000000 0.1000000000 0.1000000000 0.1000000000 0.1000000000 0.1000000000 0.1000000000 0.1000000000 0.1000000000 0.1000000000 0.1000000000 0.1000000000 0.1000000000 0.1000000000 0.1000000000 0.1000000000 0.1000000000 0.1000000000 0.1000000000 0.1000000000 0.1000000000 0.1000000000 0.1000000000 0.1000000000 0.1000000000 0.1000000000 0.1000000000 0.1000000000 0.1000000000 0.1000000000 0.1000000000 0.1000000000 0.1000000000 0.1000000000 0.1000000000 0.1000000000 0.1000000000 0.1000000000 0.1000000000 0.1000000000 0.1000000000 0.1000000000 0.1000000000 0.1000000000 0.1000000000 0.1000000000 0.1000000000 0.1000000000 0.1000000000 0.1000000000 0.1000000000 0.1000000000 0.1000000000 0.1000000000 0.1000000000 0.1000000000 0.1000000000 0.1000000000 0.1000000000 0.1000000000 0.1000000000 0.1000000000 0.1000000000 0.1000000000 0.1000000000 0.1000000000 0.1000000000 0.1000000000 0.1000000000 0.1000000000 0.1000000000 0.1000000000 0.1000000000 0.1000000000 0.1000000000 0.1000000000 0.1000000000 0.1000000000 0.1000000000 0.1000000000 0.1000000000 0.1000000000 0.1000000000 0.1000000000 0.1000000000 0.1000000000 0.1000000000 0.1000000000 0.1000000000 0.1000000000 0.1000000000 0.1000000000 0.1000000000 0.1000000000 0.1000000000 0.1000000000 0.1000000000 0.1000000000 0.1000000000 0.1000000000 0.1000000000 0.1000000000 0.1000000000 0.1000000000 0.1000000000 0.1000000000 0.1000000000 0.1000000000 0.1000000000 0.1000000000 0.1000000000 0.1000000000 0.1000000000 0.1000000000 0.1000000000 0.1000000000 0.1000000000 0.1000000000 0.1000000000 0.1000000000 0.1000000000 0.1000000000 0.1000000000 0.1000000000 0.1000000000 0.1000000000 0.1000000000 0.1000000000 0.1000000000 0.1000000000 0.1000000000 0.1000000000 0.1000000000 0.1000000000 0.1000000000 0.1000000000 0.1000000000 0.1000000000 0.1000000000 0.1000000000 0.1000000000 0.1000000000 0.1000000000 0.1000000000 0.1000000000 0.1000000000 0.1000000000 0.1000000000 0.1000000000 0.1000000000 0.1000000000 0.1000000000 0.1000000000 0.1000000000 0.1000000000 0.1000000000 0.1000000000 0.1000000000 0.1000000000 0.1000000000 0.1000000000 0.1000000000 0.1000000000 0.1000000000 0.1000000000 0.1000000000 0.1000000000 0.1000000000 0.1000000000 0.1000000000 0.1000000000 0.1000000000 0.1000000000 0.1000000000 0.1000000000 0.1000000000 0.1000000000 0.1000000000 0.1000000000 0.1000000000 0.1000000000 0.1000000000 0.1000000000 0.1000000000 0.1000000000 0.1000000000 0.1000000000 0.1000000000 0.1000000000 0.1000000000 0.1000000000 0.1000000000 0.1000000000 0.1000000000 0.1000000000 0.1000000000 0.1000000000 0.1000000000 0.1000000000 0.1000000000 0.1000000000 0.1000000000 0.1000000000 0.1000000000 0.1000000000 0.1000000000 0.1000000000 0.1000000000 0.1000000000 0.1000000000 0.1000000000 0.1000000000 0.1000000000 0.1000000000 0.1000000000 0.1000000000 0.1000000000 0.1000000000 0.1000000000 0.1000000000 0.1000000000 0.1000000000 0.1000000000 0.1000000000 0.1000000000 0.1000000000 0.1000000000 0.1000000000 0.1000000000 0.1000000000 0.1000000000 0.1000000000 0.1000000000 0.1000000000 0.1000000000 0.1000000000 0.1000000000 0.1000000000 0.1000000000 0.1000000000 0.1000000000 0.1000000000 0.1000000000 0.1000000000 0.1000000000 0.1000000000 0.1000000000 0.1000000000 0.1000000000 0.1000000000 0.1000000000 0.1000000000 0.1000000000 0.1000000000 0.1000000000 0.1000000000 0.1000000000 0.1000000000 0.1000000000 0.1000000000 0.1000000000 0.1000000000 0.1000000000 0.1000000000 0.1000000000 0.1000000000 0.1000000000 0.1000000000 0.1000000000 0.1000000000 0.1000000000 0.1000000000 0.1000000000 0.1000000000 0.1000000000 0.1000000000 0.1000000000 0.1000000000 0.1000000000 0.1000000000 0.1000000000 0.1000000000 0.1000000000 0.1000000000 0.1000000000 0.1000000000 0.1000000000 0.1000000000 0.1000000000 0.1000000000 0.1000000000 0.1000000000 0.1000000000 0.1000000000 0.1000000000 0.1000000000 0.1000000000 0.1000000000 0.1000000000 0.1000000000 0.1000000000 0.1000000000 0.1000000000 0.1000000000 0.1000000000 0.1000000000 0.1000000000 0.1000000000 0.1000000000 0.1000000000 0.1000000000 0.1000000000 0.1000000000 0.1000000000 0.1000000000 0.1000000000 0.1000000000 0.1000000000 0.1000000000 0.1000000000 0.1000000000 0.1000000000 0.1000000000 0.1000000000 0.1000000000 0.1000000000 0.1000000000 0.1000000000 0.1000000000 0.1000000000 0.1000000000 0.1000000000 0.1000000000 0.1000000000 0.1000000000 0.1000000000 0.1000000000 0.1000000000 0.1000000000 0.1000000000 0.1000000000 0.1000000000 0.1000000000 0.1000000000 0.1000000000 0.1000000000 0.1000000000 0.1000000000 0.1000000000 0.1000000000 0.1000000000 0.1000000000 0.1000000000 0.1000000000 0.1000000000 0.1000000000 0.1000000000 0.1000000000 0.1000000000 0.1000000000 0.1000000000 0.1000000000 0.1000000000 0.1000000000 0.1000000000 0.1000000000 0.1000000000 0.1000000000 0.1000000000 0.1000000000 0.1000000000 0.1000000000 0.1000000000 0.1000000000 0.1000000000 0.1000000000 0.1000000000 0.1000000000 0.1000000000 0.1000000000 0.1000000000 0.1000000000 0.1000000000 0.1000000000 0.1000000000 0.1000000000 0.1000000000 0.1000000000 0.1000000000 0.1000000000 0.1000000000 0.1000000000 0.1000000000 0.1000000000 0.1000000000 0.1000000000 0.1000000000 0.1000000000 0.1000000000 0.1000000000 0.1000000000 0.1000000000 0.1000000000 0.1000000000 0.1000000000 0.1000000000 0.1000000000 0.1000000000 0.1000000000 0.1000000000 0.1000000000 0.1000000000 0.1000000000 0.1000000000 0.1000000000 0.1000000000 0.1000000000 0.1000000000 0.1000000000 0.1000000000 0.1000000000 0.1000000000 0.1000000000 0.1000000000 0.1000000000 0.1000000000 0.1000000000 0.1000000000 0.1000000000 0.1000000000 0.1000000000 0.1000000000 0.1000000000 0.1000000000 0.1000000000 0.1000000000 0.1000000000 0.1000000000 0.1000000000 0.1000000000 0.1000000000 0.1000000000 0.1000000000 0.1000000000 0.1000000000 0.1000000000 0.1000000000 0.1000000000 0.1000000000 0.1000000000 0.1000000000 0.1000000000 0.1000000000 0.1000000000 0.1000000000 0.1000000000 0.1000000000 0.1000000000 0.1000000000 0.1000000000 0.1000000000 0.1000000000 0.1000000000 0.1000000000 0.1000000000 0.1000000000 0.1000000000 0.1000000000 0.1000000000 0.1000000000 0.1000000000 0.1000000000 0.1000000000 0.1000000000 0.1000000000 0.1000000000 0.1000000000 0.1000000000 0.1000000000 0.1000000000 0.1000000000 0.1000000000 0.1000000000 0.1000000000 0.1000000000 0.1000000000 0.1000000000 0.1000000000 0.1000000000 0.1000000000 0.1000000000 0.1000000000 0.1000000000 0.1000000000 0.1000000000 0.1000000000 0.1000000000 0.1000000000 0.1000000000 0.1000000000 0.1000000000 0.1000000000 0.1000000000 0.1000000000 0.1000000000 0.1000000000 0.1000000000 0.1000000000 0.1000000000 0.1000000000 0.1000000000 0.1000000000 0.1000000000 0.1000000000 0.1000000000 0.1000000000 0.1000000000 0.1000000000 0.1000000000 0.1000000000 0.1000000000 0.1000000000 0.1000000000 0.1000000000 0.1000000000 0.1000000000 0.1000000000 0.1000000000 0.1000000000 0.1000000000 0.1000000000 0.1000000000 0.1000000000 0.1000000000 0.1000000000 0.1000000000 0.1000000000 0.1000000000 0.1000000000 0.1000000000 0.1000000000 0.1000000000 0.1000000000 0.1000000000 0.1000000000 0.1000000000 0.1000000000 0.1000000000 0.1000000000 0.1000000000 0.1000000000 0.1000000000 0.1000000000 0.1000000000 0.1000000000 0.1000000000 0.1000000000 0.1000000000 0.1000000000 0.1000000000 0.1000000000 0.1000000000 0.1000000000 0.1000000000 0.1000000000 0.1000000000 0.1000000000 0.1000000000 0.1000000000 0.1000000000 0.1000000000 0.1000000000 0.1000000000 0.1000000000 0.1000000000 0.1000000000 0.1000000000 0.1000000000 0.1000000000 0.1000000000 0.1000000000 0.1000000000 0.1000000000 0.1000000000 0.1000000000 0.1000000000 0.1000000000 0.1000000000 0.1000000000 0.1000000000 0.1000000000 0.1000000000 0.1000000000 0.1000000000 0.1000000000 0.1000000000 0.1000000000 0.1000000000 0.1000000000 0.1000000000 0.1000000000 0.1000000000 0.1000000000 0.1000000000 0.1000000000 0.1000000000 0.1000000000 0.1000000000 0.1000000000 0.1000000000 0.1000000000 0.1000000000 0.1000000000 0.1000000000 0.1000000000 0.1000000000 0.1000000000 0.1000000000 0.1000000000 0.1000000000 0.1000000000 0.1000000000 0.1000000000 0.1000000000 0.1000000000 0.1000000000 0.1000000000 0.1000000000 0.1000000000 0.1000000000 0.1000000000 0.1000000000 0.1000000000 0.1000000000 0.1000000000 0.1000000000 0.1000000000 0.1000000000 0.1000000000 0.1000000000 0.1000000000 0.1000000000 0.1000000000 0.1000000000 0.1000000000 0.1000000000 0.1000000000 0.1000000000 0.1000000000 0.1000000000 0.1000000000 0.1000000000 0.1000000000 0.1000000000 0.1000000000 0.1000000000 0.1000000000 0.1000000000 0.1000000000 0.1000000000 0.1000000000 0.1000000000 0.1000000000 0.1000000000 0.1000000000 0.1000000000 0.1000000000 0.1000000000 0.1000000000 0.1000000000 0.1000000000 0.1000000000 0.1000000000 0.1000000000 0.1000000000 0.1000000000 0.1000000000 0.1000000000 0.1000000000 0.1000000000 0.1000000000 0.1000000000 0.1000000000 0.1000000000 0.1000000000 0.1000000000 0.1000000000 0.1000000000 0.1000000000 0.1000000000 0.1000000000 0.1000000000 0.1000000000 0.1000000000 0.1000000000 0.1000000000 0.1000000000 0.1000000000 0.1000000000 0.1000000000 0.1000000000 0.1000000000 0.1000000000 0.1000000000 0.1000000000 0.1000000000 0.1000000000 0.1000000000 0.1000000000 0.1000000000 0.1000000000 0.1000000000 0.1000000000 0.1000000000 0.1000000000 0.1000000000 0.1000000000 0.1000000000 0.1000000000 0.1000000000 0.1000000000 0.1000000000 0.1000000000 0.1000000000 0.1000000000 0.1000000000 0.1000000000 0.1000000000 0.1000000000 0.1000000000 0.1000000000 0.1000000000 0.1000000000 0.1000000000 0.1000000000 0.1000000000 0.1000000000 0.1000000000 0.1000000000 0.1000000000 0.1000000000 0.1000000000 0.1000000000 0.1000000000 0.1000000000 0.1000000000 0.1000000000 0.1000000000 0.1000000000 0.1000000000 0.1000000000 0.1000000000 0.1000000000 0.1000000000 0.1000000000 0.1000000000 0.1000000000 0.1000000000 0.1000000000 0.1000000000 0.1000000000 0.1000000000 0.1000000000 0.1000000000 0.1000000000 0.1000000000 0.1000000000 0.1000000000 0.1000000000 0.1000000000 0.1000000000 0.1000000000 0.1000000000 0.1000000000 0.1000000000 0.1000000000 0.1000000000 0.1000000000 0.1000000000 0.1000000000 0.1000000000 0.1000000000 0.1000000000 0.1000000000 0.1000000000 0.1000000000 0.1000000000 0.1000000000 0.1000000000 0.1000000000 0.1000000000 0.1000000000 0.1000000000 0.1000000000 0.1000000000 0.1000000000 0.1000000000 0.1000000000 0.1000000000 0.1000000000 0.1000000000 0.1000000000 0.1000000000 0.1000000000 0.1000000000 0.1000000000 0.1000000000 0.1000000000 0.1000000000 0.1000000000 0.1000000000 0.1000000000 0.1000000000 0.1000000000 0.1000000000 0.1000000000 0.1000000000 0.1000000000 0.1000000000 0.1000000000 0.1000000000 0.1000000000 0.1000000000 0.1000000000 0.1000000000 0.1000000000 0.1000000000 0.1000000000 0.1000000000 0.1000000000 0.1000000000 0.1000000000 0.1000000000 0.1000000000 0.1000000000 0.1000000000 0.1000000000 0.1000000000 0.1000000000 0.1000000000 0.1000000000 0.1000000000 0.1000000000 0.1000000000 0.1000000000 0.1000000000 0.1000000000 0.1000000000 0.1000000000 0.1000000000 0.1000000000 0.1000000000 0.1000000000 0.1000000000 0.1000000000 0.1000000000 0.1000000000 0.1000000000 0.1000000000 0.1000000000 0.1000000000 0.1000000000 0.1000000000 0.1000000000 0.1000000000 0.1000000000 0.1000000000 0.1000000000 0.1000000000 0.1000000000 0.1000000000 0.1000000000 0.1000000000 0.1000000000 0.1000000000 0.1000000000 0.1000000000 0.1000000000 0.1000000000 0.1000000000 0.1000000000 0.1000000000 0.1000000000 0.1000000000 0.1000000000 0.1000000000 0.1000000000 0.1000000000 0.1000000000 0.1000000000 0.1000000000 0.1000000000 0.1000000000 0.1000000000 0.1000000000 0.1000000000 0.1000000000 0.1000000000 0.1000000000 0.1000000000 0.1000000000 0.1000000000 0.1000000000 0.1000000000 0.1000000000 0.1000000000 0.1000000000 0.1000000000 0.1000000000 0.1000000000 0.1000000000 0.1000000000 0.1000000000 0.1000000000 0.1000000000 0.1000000000 0.1000000000 0.1000000000 0.1000000000 0.1000000000 0.1000000000 0.1000000000 0.1000000000 0.1000000000 0.1000000000 0.1000000000 0.1000000000 0.1000000000 0.1000000000 0.1000000000 0.1000000000 0.1000000000 0.1000000000 0.1000000000 0.1000000000 0.1000000000 0.1000000000 0.1000000000 0.1000000000 0.1000000000 0.1000000000 0.1000000000 0.1000000000 0.1000000000 0.1000000000 0.1000000000 0.1000000000 0.1000000000 0.1000000000 0.1000000000 0.1000000000 0.1000000000 0.1000000000 0.1000000000 0.1000000000 0.1000000000 0.1000000000 0.1000000000 0.1000000000 0.1000000000 0.1000000000 0.1000000000 0.1000000000 0.1000000000 0.1000000000 0.1000000000 0.1000000000 0.1000000000 0.1000000000 0.1000000000 0.1000000000 0.1000000000 0.1000000000 0.1000000000 0.1000000000 0.1000000000 0.1000000000 0.1000000000 0.1000000000 0.1000000000 0.1000000000 0.1000000000 0.1000000000 0.1000000000 0.1000000000 0.1000000000 0.1000000000 0.1000000000 0.1000000000 0.1000000000 0.1000000000 0.1000000000 0.1000000000 0.1000000000 0.1000000000 0.1000000000 0.1000000000 0.1000000000 0.1000000000 0.1000000000 0.1000000000 0.1000000000 0.1000000000 0.1000000000 0.1000000000 0.1000000000 0.1000000000 0.1000000000 0.1000000000 0.1000000000 0.1000000000 0.1000000000 0.1000000000 0.1000000000 0.1000000000 0.1000000000 0.1000000000 0.1000000000 0.1000000000 0.1000000000 0.1000000000 0.1000000000 0.1000000000 0.1000000000 0.1000000000 0.1000000000 0.1000000000 0.1000000000 0.1000000000 0.1000000000 0.1000000000 0.1000000000 0.1000000000 0.1000000000 0.1000000000 0.1000000000 0.1000000000 0.1000000000 0.1000000000 0.1000000000 0.1000000000 0.1000000000 0.1000000000 0.1000000000 0.1000000000 0.1000000000 0.1000000000 0.1000000000 0.1000000000 0.1000000000 0.1000000000 0.1000000000 0.1000000000 0.1000000000 0.1000000000 0.1000000000 0.1000000000 0.1000000000 0.1000000000 0.1000000000 0.1000000000 0.1000000000 0.1000000000 0.1000000000 0.1000000000 0.1000000000 0.1000000000 0.1000000000 0.1000000000 0.1000000000 0.1000000000 0.1000000000 0.1000000000 0.1000000000 0.1000000000 0.1000000000 0.1000000000 0.1000000000 0.1000000000 0.1000000000 0.1000000000 0.1000000000 0.1000000000 0.1000000000 0.1000000000 0.1000000000 0.1000000000 0.1000000000 0.1000000000 0.1000000000 0.1000000000 0.1000000000 0.1000000000 0.1000000000 0.1000000000 0.1000000000 0.1000000000 0.1000000000 0.1000000000 0.1000000000 0.1000000000 0.1000000000 0.1000000000 0.1000000000 0.1000000000 0.1000000000 0.1000000000 0.1000000000 0.1000000000 0.1000000000 0.1000000000 0.1000000000 0.1000000000 0.1000000000 0.1000000000 0.1000000000 0.1000000000 0.1000000000 0.1000000000 0.1000000000 0.1000000000 0.1000000000 0.1000000000 0.1000000000 0.1000000000 0.1000000000 0.1000000000 0.1000000000 0.1000000000 0.1000000000 0.1000000000 0.1000000000 0.1000000000 0.1000000000 0.1000000000 0.1000000000 0.1000000000 0.1000000000 0.1000000000 0.10000000