<?xml version="1.0"?>
<VTKFile type="UnstructuredGrid" version="0.1" byte_order="LittleEndian">
  <UnstructuredGrid>
    <FieldData>
      <DataArray type="Float32" Name="TIME"  NumberOfTuples="1" format="ascii"> 2.6500000000 </DataArray>
      <DataArray type="Int32"   Name="STEP"  NumberOfTuples="1" format="ascii"> 662500 </DataArray>
    </FieldData>
    <Piece NumberOfPoints="11600" NumberOfCells="11600">
      <Points>
        <DataArray type="Float32" NumberOfComponents="3" format="ascii">
 -0.4669754121 -0.8626520032 0.0000000976 -0.2670265552 -0.8581293515 0.0000001559 -0.0670776947 -0.8536066988 0.0000002141 0.1328711649 -0.8490840451 0.0000002730 0.3328200261 -0.8445613912 0.0000003288 0.5327688863 -0.8400387373 0.0000003822 0.7327177463 -0.8355160827 0.0000004323 0.9326666068 -0.8309934288 0.0000004782 1.1326154715 -0.8264707751 0.0000005165 1.3325643327 -0.8219481217 0.0000005421 1.5325131936 -0.8174254688 0.0000005594 1.7324620549 -0.8129028152 0.0000005679 1.9324109160 -0.8083801617 0.0000005687 2.1323597824 -0.8038575076 0.0000005610 2.3323086434 -0.7993348517 0.0000005397 2.5322575038 -0.7948121956 0.0000005135 2.7322063641 -0.7902895396 0.0000004834 2.9321552254 -0.7857668845 0.0000004517 3.1321040974 -0.7812442267 0.0000004244 3.3320529591 -0.7767215662 0.0000003964 3.5320018198 -0.7721989058 0.0000003714 3.7319506803 -0.7676762455 0.0000003503 3.9318995411 -0.7631535859 0.0000003335 4.1318484066 -0.7586309240 0.0000003256 4.3317972669 -0.7541082634 0.0000003208 4.5317461271 -0.7495856039 0.0000003187 4.7316949877 -0.7450629440 0.0000003189 4.9316438487 -0.7405402837 0.0000003206 5.1315927149 -0.7360176211 0.0000003236 5.3315415752 -0.7314949593 0.0000003293 5.5314904350 -0.7269722977 0.0000003376 5.7314392945 -0.7224496355 0.0000003493 5.9313881542 -0.7179269734 0.0000003649 6.1313370130 -0.7134043117 0.0000003886 6.3312858721 -0.7088816513 0.0000004229 6.5312347312 -0.7043589918 0.0000004651 6.7311835912 -0.6998363326 0.0000005169 6.9311324523 -0.6953136731 0.0000005788 7.1310813196 -0.6907910106 0.0000006604 7.3310301788 -0.6862683483 0.0000007565 7.5309790370 -0.6817456869 0.0000008622 7.7309278950 -0.6772230255 0.0000009756 7.9308767531 -0.6727003644 0.0000010933 8.1308256108 -0.6681777046 0.0000012177 8.3307744706 -0.6636550446 0.0000013303 8.5307233300 -0.6591323838 0.0000014347 8.7306721896 -0.6546097222 0.0000015263 8.9306210493 -0.6500870606 0.0000016019 9.1305699083 -0.6455644006 0.0000016485 9.3305187687 -0.6410417412 0.0000016603 9.5304676295 -0.6365190821 0.0000016502 9.7304164909 -0.6319964224 0.0000016173 9.9303653528 -0.6274737622 0.0000015641 10.1303142263 -0.6229511005 0.0000014746 10.3302630876 -0.6184284370 0.0000013710 10.5302119488 -0.6139057738 0.0000012567 10.7301608092 -0.6093831098 0.0000011347 10.9301096698 -0.6048604461 0.0000010085 11.1300585339 -0.6003377816 0.0000008689 11.3300073930 -0.5958151163 0.0000007401 11.5299562503 -0.5912924508 0.0000006120 11.7299051071 -0.5867697845 0.0000004853 11.9298539639 -0.5822471186 0.0000003600 12.1298028175 -0.5777244539 0.0000002275 12.3297516738 -0.5732017907 0.0000001027 12.5297005276 -0.5686791291 -0.0000000297 12.7296493837 -0.5641564670 -0.0000001573 12.9295982399 -0.5596338058 -0.0000002866 13.1295470940 -0.5551111441 -0.0000004236 13.3294959519 -0.5505884846 -0.0000005578 13.5294448068 -0.5460658275 -0.0000006941 13.7735312921 -0.5301667039 -0.0000000000 13.9735294304 -0.5310295198 -0.0000000000 14.1735275685 -0.5318923356 -0.0000000000 14.3735257093 -0.5327551507 0.0000000000 14.5735238476 -0.5336179669 0.0000000000 14.7735219870 -0.5344807822 0.0000000000 14.9735201263 -0.5353435982 0.0000000000 15.1735182648 -0.5362064138 0.0000000000 15.3735164050 -0.5370692295 0.0000000000 15.5735145435 -0.5379320453 0.0000000000 15.7735126832 -0.5387948611 0.0000000000 15.9735108225 -0.5396576764 0.0000000000 16.2585296426 -0.3996543985 0.0000000011 16.4584475809 -0.3939256935 0.0000000026 16.6583655177 -0.3881969893 0.0000000046 16.8582834568 -0.3824682847 0.0000000067 17.0582013945 -0.3767395804 0.0000000087 17.2581193321 -0.3710108760 0.0000000107 17.4580372710 -0.3652821717 0.0000000125 17.6579552081 -0.3595534674 0.0000000144 17.8578731468 -0.3538247629 0.0000000159 18.0577910846 -0.3480960586 0.0000000174 18.2577090224 -0.3423673543 0.0000000190 18.4576269616 -0.3366386502 0.0000000208 18.6575448987 -0.3309099462 0.0000000231 18.8574628381 -0.3251812415 0.0000000260 19.0573807760 -0.3194525372 0.0000000292 19.2572987139 -0.3137238327 0.0000000328 19.4572166513 -0.3079951281 0.0000000366 -0.3709177146 -0.6872298889 0.0000000988 -0.1709688578 -0.6827072369 0.0000001568 0.0289800020 -0.6781845835 0.0000002147 0.2289288628 -0.6736619301 0.0000002712 0.4288777227 -0.6691392763 0.0000003253 0.6288265828 -0.6646166219 0.0000003763 0.8287754433 -0.6600939674 0.0000004234 1.0287243062 -0.6555713139 0.0000004642 1.2286731694 -0.6510486602 0.0000004938 1.4286220307 -0.6465260072 0.0000005138 1.6285708916 -0.6420033539 0.0000005245 1.8285197529 -0.6374806999 0.0000005267 2.0284686157 -0.6329580465 0.0000005198 2.2284174783 -0.6284353913 0.0000005009 2.4283663388 -0.6239127353 0.0000004742 2.6283151995 -0.6193900791 0.0000004427 2.8282640609 -0.6148674233 0.0000004088 3.0282129250 -0.6103447675 0.0000003750 3.2281617892 -0.6058221081 0.0000003435 3.4281106507 -0.6012994476 0.0000003145 3.6280595119 -0.5967767872 0.0000002893 3.8280083731 -0.5922541271 0.0000002686 4.0279572355 -0.5877314665 0.0000002537 4.2279060981 -0.5832088053 0.0000002455 4.4278549590 -0.5786861453 0.0000002410 4.6278038196 -0.5741634856 0.0000002393 4.8277526805 -0.5696408253 0.0000002398 5.0277015429 -0.5651181643 0.0000002419 5.2276504053 -0.5605955016 0.0000002463 5.4275992653 -0.5560728401 0.0000002533 5.6275481249 -0.5515501781 0.0000002633 5.8274969845 -0.5470275158 0.0000002769 6.0274458447 -0.5425048536 0.0000002961 6.2273947048 -0.5379821928 0.0000003249 6.4273435640 -0.5334595330 0.0000003622 6.6272924240 -0.5289368738 0.0000004081 6.8272412845 -0.5244142144 0.0000004641 7.0271901468 -0.5198915539 0.0000005328 7.2271390087 -0.5153688907 0.0000006193 7.4270878680 -0.5108462290 0.0000007175 7.6270367265 -0.5063235675 0.0000008244 7.8269855846 -0.5018009060 0.0000009376 8.0269344432 -0.4972782454 0.0000010541 8.2268833024 -0.4927555858 0.0000011680 8.4268321611 -0.4882329256 0.0000012746 8.6267810204 -0.4837102644 0.0000013707 8.8267298797 -0.4791876027 0.0000014524 9.0266787399 -0.4746649416 0.0000015133 9.2266276006 -0.4701422823 0.0000015414 9.4265764612 -0.4656196235 0.0000015444 9.6265253226 -0.4610969642 0.0000015251 9.8264741848 -0.4565743042 0.0000014843 10.0264230500 -0.4520516439 0.0000014205 10.2263719149 -0.4475289804 0.0000013309 10.4263207767 -0.4430063172 0.0000012280 10.6262696377 -0.4384836536 0.0000011164 10.8262184983 -0.4339609896 0.0000009990 11.0261673597 -0.4294383259 0.0000008771 11.2261162203 -0.4249156604 0.0000007540 11.4260650785 -0.4203929948 0.0000006328 11.6260139355 -0.4158703288 0.0000005129 11.8259627919 -0.4113476623 0.0000003940 12.0259116485 -0.4068249967 0.0000002746 12.2258605046 -0.4023023335 0.0000001548 12.4258093603 -0.3977796706 0.0000000340 12.6257582162 -0.3932570092 -0.0000000887 12.8257070718 -0.3887343480 -0.0000002129 13.0256559282 -0.3842116858 -0.0000003404 13.2256047852 -0.3796890260 -0.0000004718 13.4255536432 -0.3751663674 -0.0000006050 13.6742794407 -0.3565318301 -0.0000000000 13.8742775809 -0.3573946441 0.0000000000 14.0742757200 -0.3582574596 0.0000000000 14.2742738592 -0.3591202758 0.0000000000 14.4742719984 -0.3599830913 0.0000000000 14.6742701376 -0.3608459072 0.0000000000 14.8742682766 -0.3617087230 0.0000000000 15.0742664157 -0.3625715385 0.0000000000 15.2742645552 -0.3634343547 0.0000000000 15.4742626943 -0.3642971699 0.0000000000 15.6742608338 -0.3651599854 0.0000000000 15.8742589703 -0.3660228033 0.0000000000 16.1536094709 -0.2293847393 0.0000000012 16.3535274073 -0.2236560343 0.0000000025 16.5534453456 -0.2179273294 0.0000000043 16.7533632840 -0.2121986250 0.0000000063 16.9532812220 -0.2064699205 0.0000000082 17.1531991599 -0.2007412162 0.0000000101 17.3531170978 -0.1950125119 0.0000000119 17.5530350361 -0.1892838073 0.0000000137 17.7529529744 -0.1835551030 0.0000000152 17.9528709123 -0.1778263987 0.0000000167 18.1527888502 -0.1720976946 0.0000000183 18.3527067883 -0.1663689907 0.0000000200 18.5526247269 -0.1606402861 0.0000000221 18.7525426655 -0.1549115820 0.0000000248 18.9524606035 -0.1491828776 0.0000000279 19.1523785415 -0.1434541732 0.0000000314 19.3522964795 -0.1377254688 0.0000000351 19.5522144164 -0.1319967644 0.0000000389 -0.4748088764 -0.5163304261 0.0000000430 -0.2748600193 -0.5118077728 0.0000001005 -0.0749111600 -0.5072851202 0.0000001578 0.1250376987 -0.5027624672 0.0000002145 0.3249865594 -0.4982398137 0.0000002691 0.5249354193 -0.4937171600 0.0000003210 0.7248842797 -0.4891945057 0.0000003691 0.9248331409 -0.4846718518 0.0000004121 1.1247820053 -0.4801491977 0.0000004460 1.3247308671 -0.4756265446 0.0000004687 1.5246797283 -0.4711038913 0.0000004821 1.7246285891 -0.4665812376 0.0000004859 1.9245774502 -0.4620585839 0.0000004808 2.1245263133 -0.4575359290 0.0000004642 2.3244751740 -0.4530132738 0.0000004374 2.5244240345 -0.4484906178 0.0000004047 2.7243728954 -0.4439679618 0.0000003684 2.9243217565 -0.4394453058 0.0000003308 3.1242706213 -0.4349226478 0.0000002944 3.3242194825 -0.4303999882 0.0000002611 3.5241683436 -0.4258773279 0.0000002314 3.7241172045 -0.4213546681 0.0000002063 3.9240660654 -0.4168320078 0.0000001863 4.1240149302 -0.4123093461 0.0000001730 4.3239637912 -0.4077866859 0.0000001655 4.5239126521 -0.4032640261 0.0000001615 4.7238615126 -0.3987413662 0.0000001603 4.9238103734 -0.3942187056 0.0000001613 5.1237592362 -0.3896960433 0.0000001645 5.3237080966 -0.3851733814 0.0000001704 5.5236569563 -0.3806507196 0.0000001789 5.7236058159 -0.3761280575 0.0000001908 5.9235546757 -0.3716053956 0.0000002068 6.1235035376 -0.3670827338 0.0000002302 6.3234523972 -0.3625
[...]
      <PointData Scalars="radius">
        <DataArray type="Float32" Name="radius" format="ascii">
 0.1000000000 0.1000000000 0.1000000000 0.1000000000 0.1000000000 0.1000000000 0.1000000000 0.1000000000 0.1000000000 0.1000000000 0.1000000000 0.1000000000 0.1000000000 0.1000000000 0.1000000000 0.1000000000 0.1000000000 0.1000000000 0.1000000000 0.1000000000 0.1000000000 0.1000000000 0.1000000000 0.1000000000 0.1000000000 0.1000000000 0.1000000000 0.1000000000 0.1000000000 0.1000000000 0.1000000000 0.1000000000 0.1000000000 0.1000000000 0.1000000000 0.1000000000 0.1000000000 0.1000000000 0.1000000000 0.1000000000 0.1000000000 0.1000000000 0.1000000000 0.1000000000 0.1000000000 0.1000000000 0.1000000000 0.1000000000 0.1000000000 0.1000000000 0.1000000000 0.1000000000 0.1000000000 0.1000000000 0.1000000000 0.1000000000 0.1000000000 0.1000000000 0.1000000000 0.1000000000 0.1000000000 0.1000000000 0.1000000000 0.1000000000 0.1000000000 0.1000000000 0.1000000000 0.1000000000 0.1000000000 0.1000000000 0.1000000000 0.1000000000 0.1000000000 0.1000000000 0.1000000000 0.1000000000 0.1000000000 0.1000000000 0.1000000000 0.1000000000 0.1000000000 0.1000000000 0.1000000000 0.1000000000 0.1000000000 0.1000000000 0.1000000000 0.1000000000 0.1000000000 0.1000000000 0.1000000000 0.1000000000 0.1000000000 0.1000000000 0.1000000000 0.1000000000 0.1000000000 0.1000000000 0.1000000000 0.1000000000 0.1000000000 0.1000000000 0.1000000000 0.1000000000 0.1000000000 0.1000000000 0.1000000000 0.1000000000 0.1000000000 0.1000000000 0.1000000000 0.1000000000 0.1000000000 0.1000000000 0.1000000000 0.1000000000 0.1000000000 0.1000000000 0.1000000000 0.1000000000 0.1000000000 0.1000000000 0.1000000000 0.1000000000 0.1000000000 0.1000000000 0.1000000000 0.1000000000 0.1000000000 0.1000000000 0.1000000000 0.1000000000 0.1000000000 0.1000000000 0.1000000000 0.1000000000 0.1000000000 0.1000000000 0.1000000000 0.1000000000 0.1000000000 0.1000000000 0.1000000000 0.1000000000 0.1000000000 0.1000000000 0.1000000000 0.1000000000 0.1000000000 0.1000000000 0.1000000000 0.1000000000 0.1000000000 0.1000000000 0.1000000000 0.1000000000 0.1000000000 0.1000000000 0.1000000000 0.1000000000 0.1000000000 0.1000000000 0.1000000000 0.1000000000 0.1000000000 0.1000000000 0.1000000000 0.1000000000 0.1000000000 0.1000000000 0.1000000000 0.1000000000 0.1000000000 0.1000000000 0.1000000000 0.1000000000 0.1000000000 0.1000000000 0.1000000000 0.1000000000 0.1000000000 0.1000000000 0.1000000000 0.1000000000 0.1000000000 0.1000000000 0.1000000000 0.1000000000 0.1000000000 0.1000000000 0.1000000000 0.1000000000 0.1000000000 0.1000000000 0.1000000000 0.1000000000 0.1000000000 0.1000000000 0.1000000000 0.1000000000 0.1000000000 0.1000000000 0.1000000000 0.1000000000 0.1000000000 0.1000000000 0.1000000000 0.1000000000 0.1000000000 0.1000000000 0.1000000000 0.1000000000 0.1000000000 0.1000000000 0.1000000000 0.1000000000 0.1000000000 0.1000000000 0.1000000000 0.1000000000 0.1000000000 0.1000000000 0.1000000000 0.1000000000 0.1000000000 0.1000000000 0.1000000000 0.1000000000 0.1000000000 0.1000000000 0.1000000000 0.1000000000 0.1000000000 0.1000000000 0.1000000000 0.1000000000 0.1000000000 0.1000000000 0.1000000000 0.1000000000 0.1000000000 0.1000000000 0.1000000000 0.1000000000 0.1000000000 0.1000000000 0.1000000000 0.1000000000 0.1000000000 0.1000000000 0.1000000000 0.1000000000 0.1000000000 0.1000000000 0.1000000000 0.1000000000 0.1000000000 0.1000000000 0.1000000000 0.1000000000 0.1000000000 0.1000000000 0.1000000000 0.1000000000 0.1000000000 0.1000000000 0.1000000000 0.1000000000 0.1000000000 0.1000000000 0.1000000000 0.1000000000 0.1000000000 0.1000000000 0.1000000000 0.1000000000 0.1000000000 0.1000000000 0.1000000000 0.1000000000 0.1000000000 0.1000000000 0.1000000000 0.1000000000 0.1000000000 0.1000000000 0.1000000000 0.1000000000 0.1000000000 0.1000000000 0.1000000000 0.1000000000 0.1000000000 0.1000000000 0.1000000000 0.1000000000 0.1000000000 0.1000000000 0.1000000000 0.1000000000 0.1000000000 0.1000000000 0.1000000000 0.1000000000 0.1000000000 0.1000000000 0.1000000000 0.1000000000 0.1000000000 0.1000000000 0.1000000000 0.1000000000 0.1000000000 0.1000000000 0.1000000000 0.1000000000 0.1000000000 0.1000000000 0.1000000000 0.1000000000 0.1000000000 0.1000000000 0.1000000000 0.1000000000 0.1000000000 0.1000000000 0.1000000000 0.1000000000 0.1000000000 0.1000000000 0.1000000000 0.1000000000 0.1000000000 0.1000000000 0.1000000000 0.1000000000 0.1000000000 0.1000000000 0.1000000000 0.1000000000 0.1000000000 0.1000000000 0.1000000000 0.1000000000 0.1000000000 0.1000000000 0.1000000000 0.1000000000 0.1000000000 0.1000000000 0.1000000000 0.1000000000 0.1000000000 0.1000000000 0.1000000000 0.1000000000 0.1000000000 0.1000000000 0.1000000000 0.1000000000 0.1000000000 0.1000000000 0.1000000000 0.1000000000 0.1000000000 0.1000000000 0.1000000000 0.1000000000 0.1000000000 0.1000000000 0.1000000000 0.1000000000 0.1000000000 0.1000000000 0.1000000000 0.1000000000 0.1000000000 0.1000000000 0.1000000000 0.1000000000 0.1000000000 0.1000000000 0.1000000000 0.1000000000 0.1000000000 0.1000000000 0.1000000000 0.1000000000 0.1000000000 0.1000000000 0.1000000000 0.1000000000 0.1000000000 0.1000000000 0.1000000000 0.1000000000 0.1000000000 0.1000000000 0.1000000000 0.1000000000 0.1000000000 0.1000000000 0.1000000000 0.1000000000 0.1000000000 0.1000000000 0.1000000000 0.1000000000 0.1000000000 0.1000000000 0.1000000000 0.1000000000 0.1000000000 0.1000000000 0.1000000000 0.1000000000 0.1000000000 0.1000000000 0.1000000000 0.1000000000 0.1000000000 0.1000000000 0.1000000000 0.1000000000 0.1000000000 0.1000000000 0.1000000000 0.1000000000 0.1000000000 0.1000000000 0.1000000000 0.1000000000 0.1000000000 0.1000000000 0.1000000000 0.1000000000 0.1000000000 0.1000000000 0.1000000000 0.1000000000 0.1000000000 0.1000000000 0.1000000000 0.1000000000 0.1000000000 0.1000000000 0.1000000000 0.1000000000 0.1000000000 0.1000000000 0.1000000000 0.1000000000 0.1000000000 0.1000000000 0.1000000000 0.1000000000 0.1000000000 0.1000000000 0.1000000000 0.1000000000 0.1000000000 0.1000000000 0.1000000000 0.1000000000 0.1000000000 0.1000000000 0.1000000000 0.1000000000 0.1000000000 0.1000000000 0.1000000000 0.1000000000 0.1000000000 0.1000000000 0.1000000000 0.1000000000 0.1000000000 0.1000000000 0.1000000000 0.1000000000 0.1000000000 0.1000000000 0.1000000000 0.1000000000 0.1000000000 0.1000000000 0.1000000000 0.1000000000 0.1000000000 0.1000000000 0.1000000000 0.1000000000 0.1000000000 0.1000000000 0.1000000000 0.1000000000 0.1000000000 0.1000000000 0.1000000000 0.1000000000 0.1000000000 0.1000000000 0.1000000000 0.1000000000 0.1000000000 0.1000000000 0.1000000000 0.1000000000 0.1000000000 0.1000000000 0.1000000000 0.1000000000 0.1000000000 0.1000000000 0.1000000000 0.1000000000 0.1000000000 0.1000000000 0.1000000000 0.1000000000 0.1000000000 0.1000000000 0.1000000000 0.1000000000 0.1000000000 0.1000000000 0.1000000000 0.1000000000 0.1000000000 0.1000000000 0.1000000000 0.1000000000 0.1000000000 0.1000000000 0.1000000000 0.1000000000 0.1000000000 0.1000000000 0.1000000000 0.1000000000 0.1000000000 0.1000000000 0.1000000000 0.1000000000 0.1000000000 0.1000000000 0.1000000000 0.1000000000 0.1000000000 0.1000000000 0.1000000000 0.1000000000 0.1000000000 0.1000000000 0.1000000000 0.1000000000 0.1000000000 0.1000000000 0.1000000000 0.1000000000 0.1000000000 0.1000000000 0.1000000000 0.1000000000 0.1000000000 0.1000000000 0.1000000000 0.1000000000 0.1000000000 0.1000000000 0.1000000000 0.1000000000 0.1000000000 0.1000000000 0.1000000000 0.1000000000 0.1000000000 0.1000000000 0.1000000000 0.1000000000 0.1000000000 0.1000000000 0.1000000000 0.1000000000 0.1000000000 0.1000000000 0.1000000000 0.1000000000 0.1000000000 0.1000000000 0.1000000000 0.1000000000 0.1000000000 0.1000000000 0.1000000000 0.1000000000 0.1000000000 0.1000000000 0.1000000000 0.1000000000 0.1000000000 0.1000000000 0.1000000000 0.1000000000 0.1000000000 0.1000000000 0.1000000000 0.1000000000 0.1000000000 0.1000000000 0.1000000000 0.1000000000 0.1000000000 0.1000000000 0.1000000000 0.1000000000 0.1000000000 0.1000000000 0.1000000000 0.1000000000 0.1000000000 0.1000000000 0.1000000000 0.1000000000 0.1000000000 0.1000000000 0.1000000000 0.1000000000 0.1000000000 0.1000000000 0.1000000000 0.1000000000 0.1000000000 0.1000000000 0.1000000000 0.1000000000 0.1000000000 0.1000000000 0.1000000000 0.1000000000 0.1000000000 0.1000000000 0.1000000000 0.1000000000 0.1000000000 0.1000000000 0.1000000000 0.1000000000 0.1000000000 0.1000000000 0.1000000000 0.1000000000 0.1000000000 0.1000000000 0.1000000000 0.1000000000 0.1000000000 0.1000000000 0.1000000000 0.1000000000 0.1000000000 0.1000000000 0.1000000000 0.1000000000 0.1000000000 0.1000000000 0.1000000000 0.1000000000 0.1000000000 0.1000000000 0.1000000000 0.1000000000 0.1000000000 0.1000000000 0.1000000000 0.1000000000 0.1000000000 0.1000000000 0.1000000000 0.1000000000 0.1000000000 0.1000000000 0.1000000000 0.1000000000 0.1000000000 0.1000000000 0.1000000000 0.1000000000 0.1000000000 0.1000000000 0.1000000000 0.1000000000 0.1000000000 0.1000000000 0.1000000000 0.1000000000 0.1000000000 0.1000000000 0.1000000000 0.1000000000 0.1000000000 0.1000000000 0.1000000000 0.1000000000 0.1000000000 0.1000000000 0.1000000000 0.1000000000 0.1000000000 0.1000000000 0.1000000000 0.1000000000 0.1000000000 0.1000000000 0.1000000000 0.1000000000 0.1000000000 0.1000000000 0.1000000000 0.1000000000 0.1000000000 0.1000000000 0.1000000000 0.1000000000 0.1000000000 0.1000000000 0.1000000000 0.1000000000 0.1000000000 0.1000000000 0.1000000000 0.1000000000 0.1000000000 0.1000000000 0.1000000000 0.1000000000 0.1000000000 0.1000000000 0.1000000000 0.1000000000 0.1000000000 0.1000000000 0.1000000000 0.1000000000 0.1000000000 0.1000000000 0.1000000000 0.1000000000 0.1000000000 0.1000000000 0.1000000000 0.1000000000 0.1000000000 0.1000000000 0.1000000000 0.1000000000 0.1000000000 0.1000000000 0.1000000000 0.1000000000 0.1000000000 0.1000000000 0.1000000000 0.1000000000 0.1000000000 0.1000000000 0.1000000000 0.1000000000 0.1000000000 0.1000000000 0.1000000000 0.1000000000 0.1000000000 0.1000000000 0.1000000000 0.1000000000 0.1000000000 0.1000000000 0.1000000000 0.1000000000 0.1000000000 0.1000000000 0.1000000000 0.1000000000 0.1000000000 0.1000000000 0.1000000000 0.1000000000 0.1000000000 0.1000000000 0.1000000000 0.1000000000 0.1000000000 0.1000000000 0.1000000000 0.1000000000 0.1000000000 0.1000000000 0.1000000000 0.1000000000 0.1000000000 0.1000000000 0.1000000000 0.1000000000 0.1000000000 0.1000000000 0.1000000000 0.1000000000 0.1000000000 0.1000000000 0.1000000000 0.1000000000 0.1000000000 0.1000000000 0.1000000000 0.1000000000 0.1000000000 0.1000000000 0.1000000000 0.1000000000 0.1000000000 0.1000000000 0.1000000000 0.1000000000 0.1000000000 0.1000000000 0.1000000000 0.1000000000 0.1000000000 0.1000000000 0.1000000000 0.1000000000 0.1000000000 0.1000000000 0.1000000000 0.1000000000 0.1000000000 0.1000000000 0.1000000000 0.1000000000 0.1000000000 0.1000000000 0.1000000000 0.1000000000 0.1000000000 0.1000000000 0.1000000000 0.1000000000 0.1000000000 0.1000000000 0.1000000000 0.1000000000 0.1000000000 0.1000000000 0.1000000000 0.1000000000 0.1000000000 0.1000000000 0.1000000000 0.1000000000 0.1000000000 0.1000000000 0.1000000000 0.1000000000 0.1000000000 0.1000000000 0.1000000000 0.1000000000 0.1000000000 0.1000000000 0.1000000000 0.1000000000 0.1000000000 0.1000000000 0.1000000000 0.1000000000 0.1000000000 0.1000000000 0.1000000000 0.1000000000 0.1000000000 0.1000000000 0.1000000000 0.1000000000 0.1000000000 0.1000000000 0.1000000000 0.1000000000 0.1000000000 0.1000000000 0.1000000000 0.1000000000 0.1000000000 0.1000000000 0.1000000000 0.1000000000 0.1000000000 0.1000000000 0.1000000000 0.1000000000 0.1000000000 0.1000000000 0.1000000000 0.1000000000 0.1000000000 0.1000000000 0.1000000000 0.1000000000 0.1000000000 0.1000000000 0.1000000000 0.1000000000 0.1000000000 0.1000000000 0.1000000000 0.1000000000 0.1000000000 0.1000000000 0.1000000000 0.1000000000 0.1000000000 0.1000000000 0.1000000000 0.1000000000 0.1000000000 0.1000000000 0.1000000000 0.1000000000 0.1000000000 0.1000000000 0.1000000000 0.1000000000 0.1000000000 0.1000000000 0.1000000000 0.1000000000 0.1000000000 0.1000000000 0.1000000000 0.1000000000 0.1000000000 0.1000000000 0.1000000000 0.1000000000 0.1000000000 0.1000000000 0.1000000000 0.1000000000 0.1000000000 0.1000000000 0.1000000000 0.1000000000 0.1000000000 0.1000000000 0.1000000000 0.1000000000 0.1000000000 0.1000000000 0.1000000000 0.1000000000 0.1000000000 0.1000000000 0.1000000000 0.1000000000 0.1000000000 0.1000000000 0.1000000000 0.1000000000 0.1000000000 0.1000000000 0.1000000000 0.1000000000 0.1000000000 0.1000000000 0.1000000000 0.1000000000 0.1000000000 0.1000000000 0.1000000000 0.1000000000 0.1000000000 0.1000000000 0.1000000000 0.1000000000 0.1000000000 0.1000000000 0.1000000000 0.1000000000 0.1000000000 0.1000000000 0.1000000000 0.1000000000 0.1000000000 0.1000000000 0.1000000000 0.1000000000 0.1000000000 0.1000000000 0.1000000000 0.1000000000 0.1000000000 0.1000000000 0.1000000000 0.1000000000 0.1000000000 0.1000000000 0.1000000000 0.1000000000 0.1000000000 0.1000000000 0.1000000000 0.1000000000 0.1000000000 0.1000000000 0.1000000000 0.1000000000 0.1000000000 0.1000000000 0.1000000000 0.1000000000 0.1000000000 0.1000000000 0.1000000000 0.1000000000 0.1000000000 0.1000000000 0.1000000000 0.1000000000 0.1000000000 0.1000000000 0.1000000000 0.1000000000 0.1000000000 0.1000000000 0.1000000000 0.1000000000 0.1000000000 0.1000000000 0.1000000000 0.1000000000 0.1000000000 0.1000000000 0.1000000000 0.1000000000 0.1000000000 0.1000000000 0.1000000000 0.1000000000 0.1000000000 0.1000000000 0.1000000000 0.1000000000 0.1000000000 0.1000000000 0.1000000000 0.1000000000 0.1000000000 0.1000000000 0.1000000000 0.1000000000 0.1000000000 0.1000000000 0.1000000000 0.1000000000 0.1000000000 0.1000000000 0.1000000000 0.1000000000 0.1000000000 0.1000000000 0.1000000000 0.1000000000 0.1000000000 0.1000000000 0.1000000000 0.1000000000 0.1000000000 0.1000000000 0.1000000000 0.1000000000 0.1000000000 0.1000000000 0.1000000000 0.1000000000 0.1000000000 0.1000000000 0.1000000000 0.1000000000 0.1000000000 0.1000000000 0.1000000000 0.1000000000 0.1000000000 0.1000000000 0.1000000000 0.1000000000 0.1000000000 0.1000000000 0.1000000000 0.1000000000 0.1000000000 0.1000000000 0.1000000000 0.1000000000 0.1000000000 0.1000000000 0.1000000000 0.1000000000 0.1000000000 0.1000000000 0.1000000000 0.1000000000 0.1000000000 0.1000000000 0.1000000000 0.1000000000 0.1000000000 0.1000000000 0.1000000000 0.1000000000 0.1000000000 0.1000000000 0.1000000000 0.1000000000 0.1000000000 0.1000000000 0.1000000000 0.1000000000 0.1000000000 0.1000000000 0.1000000000 0.1000000000 0.1000000000 0.1000000000 0.1000000000 0.1000000000 0.1000000000 0.1000000000 0.1000000000 0.1000000000 0.1000000000 0.1000000000 0.1000000000 0.1000000000 0.1000000000 0.1000000000 0.1000000000 0.1000000000 0.1000000000 0.1000000000 0.1000000000 0.1000000000 0.1000000000 0.1000000000 0.1000000000 0.1000000000 0.1000000000 0.1000000000 0.1000000000 0.1000000000 0.1000000000 0.1000000000 0.1000000000 0.1000000000 0.1000000000 0.1000000000 0.1000000000 0.1000000000 0.1000000000 0.1000000000 0.1000000000 0.1000000000 0.1000000000 0.1000000000 0.1000000000 0.1000000000 0.1000000000 0.1000000000 0.1000000000 0.1000000000 0.1000000000 0.1000000000 0.1000000000 0.1000000000 0.1000000000 0.1000000000 0.1000000000 0.1000000000 0.1000000000 0.1000000000 0.1000000000 0.1000000000 0.1000000000 0.1000000000 0.1000000000 0.1000000000 0.1000000000 0.1000000000 0.1000000000 0.1000000000 0.1000000000 0.1000000000 0.1000000000 0.1000000000 0.1000000000 0.1000000000 0.1000000000 0.1000000000 0.1000000000 0.1000000000 0.1000000000 0.1000000000 0.1000000000 0.1000000000 0.1000000000 0.1000000000 0.1000000000 0.1000000000 0.1000000000 0.1000000000 0.1000000000 0.1000000000 0.1000000000 0.1000000000 0.1000000000 0.1000000000 0.1000000000 0.1000000000 0.1000000000 0.1000000000 0.1000000000 0.1000000000 0.1000000000 0.1000000000 0.1000000000 0.1000000000 0.1000000000 0.1000000000 0.1000000000 0.1000000000 0.1000000000 0.1000000000 0.1000000000 0.1000000000 0.1000000000 0.1000000000 0.1000000000 0.1000000000 0.1000000000 0.1000000000 0.1000000000 0.1000000000 0.1000000000 0.1000000000 0.1000000000 0.1000000000 0.1000000000 0.1000000000 0.1000000000 0.1000000000 0.1000000000 0.1000000000 0.1000000000 0.1000000000 0.1000000000 0.1000000000 0.1000000000 0.1000000000 0.1000000000 0.1000000000 0.1000000000 0.1000000000 0.1000000000 0.1000000000 0.1000000000 0.1000000000 0.1000000000 0.1000000000 0.1000000000 0.1000000000 0.1000000000 0.1000000000 0.1000000000 0.1000000000 0.1000000000 0.1000000000 0.1000000000 0.1000000000 0.1000000000 0.1000000000 0.1000000000 0.1000000000 0.1000000000 0.1000000000 0.1000000000 0.1000000000 0.1000000000 0.1000000000 0.1000000000 0.1000000000 0.1000000000 0.1000000000 0.1000000000 0.1000000000 0.1000000000 0.1000000000 0.1000000000 0.1000000000 0.1000000000 0.1000000000 0.1000000000 0.1000000000 0.1000000000 0.1000000000 0.1000000000 0.1000000000 0.1000000000 0.1000000000 0.1000000000 0.1000000000 0.1000000000 0.1000000000 0.1000000000 0.1000000000 0.1000000000 0.1000000000 0.1000000000 0.1000000000 0.1000000000 0.1000000000 0.1000000000 0.1000000000 0.1000000000 0.1000000000 0.1000000000 0.1000000000 0.1000000000 0.1000000000 0.1000000000 0.1000000000 0.1000000000 0.1000000000 0.1000000000 0.1000000000 0.1000000000 0.1000000000 0.1000000000 0.1000000000 0.1000000000 0.1000000000 0.1000000000 0.1000000000 0.1000000000 0.1000000000 0.1000000000 0.1000000000 0.1000000000 0.1000000000 0.1000000000 0.1000000000 0.1000000000 0.1000000000 0.1000000000 0.1000000000 0.1000000000 0.1000000000 0.1000000000 0.1000000000 0.1000000000 0.1000000000 0.1000000000 0.1000000000 0.1000000000 0.1000000000 0.1000000000 0.1000000000 0.1000000000 0.1000000000 0.1000000000 0.1000000000 0.1000000000 0.1000000000 0.1000000000 0.1000000000 0.1000000000 0.1000000000 0.1000000000 0.1000000000 0.1000000000 0.1000000000 0.1000000000 0.1000000000 0.1000000000 0.1000000000 0.1000000000 0.1000000000 0.1000000000 0.1000000000 0.1000000000 0.1000000000 0.1000000000 0.1000000000 0.1000000000 0.1000000000 0.1000000000 0.1000000000 0.1000000000 0.1000000000 0.1000000000 0.1000000000 0.1000000000 0.1000000000 0.1000000000 0.1000000000 0.1000000000 0.1000000000 0.1000000000 0.1000000000 0.1000000000 0.1000000000 0.1000000000 0.1000000000 0.1000000000 0.1000000000 0.1000000000 0.1000000000 0.1000000000 0.1000000000 0.1000000000 0.1000000000 0.1000000000 0.1000000000 0.1000000000 0.1000000000 0.1000000000 0.1000000000 0.1000000000 0.1000000000 0.1000000000 0.1000000000 0.1000000000 0.1000000000 0.1000000000 0.1000000000 0.1000000000 0.1000000000 0.1000000000 0.1000000000 0.1000000000 0.1000000000 0.1000000000 0.1000000000 0.1000000000 0.1000000000 0.1000000000 0.1000000000 0.1000000000 0.1000000000 0.1000000000 0.1000000000 0.1000000000 0.1000000000 0.1000000000 0.1000000000 0.1000000000 0.1000000000 0.1000000000 0.1000000000 0.1000000000 0.1000000000 0.1000000000 0.1000000000 0.1000000000 0.1000000000 0.1000000000 0.1000000000 0.1000000000 0.1000000000 0.1000000000 0.1000000000 0.1000000000 0.1000000000 0.1000000000 0.1000000000 0.1000000000 0.1000000000 0.1000000000 0.1000000000 0.1000000000 0.1000000000 0.1000000000 0.1000000000 0.1000000000 0.1000000000 0.1000000000 0.1000000000 0.1000000000 0.1000000000 0.1000000000 0.1000000000 0.1000000000 0.1000000000 0.1000000000 0.1000000000 0.1000000000 0.1000000000 0.1000000000 0.1000000000 0.1000000000 0.1000000000 0.1000000000 0.1000000000 0.1000000000 0.1000000000 0.1000000000 0.1000000000 0.1000000000 0.1000000000 0.1000000000 0.1000000000 0.1000000000 0.1000000000 0.1000000000 0.1000000000 0.1000000000 0.1000000000 0.1000000000 0.1000000000 0.1000000000 0.1000000000 0.10000000