<?xml version="1.0"?>
<VTKFile type="UnstructuredGrid" version="0.1" byte_order="LittleEndian">
  <UnstructuredGrid>
    <FieldData>
      <DataArray type="Float32" Name="TIME"  NumberOfTuples="1" format="ascii"> 1.5000000000 </DataArray>
      <DataArray type="Int32"   Name="STEP"  NumberOfTuples="1" format="ascii"> 375000 </DataArray>
    </FieldData>
    <Piece NumberOfPoints="11600" NumberOfCells="11600">
      <Points>
        <DataArray type="Float32" NumberOfComponents="3" format="ascii">
 -0.2430829187 -0.5239001741 -0.0000017915 -0.0431041169 -0.5209884000 -0.0000018054 0.1568746877 -0.5180766257 -0.0000018229 0.3568534899 -0.5151648511 -0.0000018535 0.5568322947 -0.5122530762 -0.0000018885 0.7568110979 -0.5093413017 -0.0000019277 0.9567899014 -0.5064295268 -0.0000019696 1.1567687058 -0.5035177522 -0.0000020134 1.3567475097 -0.5006059772 -0.0000020723 1.5567263145 -0.4976942021 -0.0000021211 1.7567051184 -0.4947824271 -0.0000021722 1.9566839227 -0.4918706522 -0.0000022246 2.1566627279 -0.4889588774 -0.0000022747 2.3566415359 -0.4860471017 -0.0000023311 2.5566203415 -0.4831353251 -0.0000023585 2.7565991466 -0.4802235487 -0.0000023811 2.9565779515 -0.4773117719 -0.0000024015 3.1565567572 -0.4743999956 -0.0000024206 3.3565355676 -0.4714882181 -0.0000024492 3.5565143735 -0.4685764400 -0.0000024417 3.7564931786 -0.4656646626 -0.0000024105 3.9564719842 -0.4627528850 -0.0000023489 4.1564507902 -0.4598411080 -0.0000022619 4.3564296036 -0.4569293295 -0.0000021420 4.5564084095 -0.4540175498 -0.0000020326 4.7563872153 -0.4511057708 -0.0000019323 4.9563660210 -0.4481939916 -0.0000018438 5.1563448272 -0.4452822130 -0.0000017625 5.3563236397 -0.4423704333 -0.0000016830 5.5563024459 -0.4394586529 -0.0000015857 5.7562812518 -0.4365468733 -0.0000014787 5.9562600578 -0.4336350938 -0.0000013654 6.1562388642 -0.4307233152 -0.0000012523 6.3562176801 -0.4278115352 -0.0000011457 6.5561964868 -0.4248997545 -0.0000010552 6.7561752934 -0.4219879746 -0.0000009719 6.9561541002 -0.4190761950 -0.0000008947 7.1561329075 -0.4161644170 -0.0000008229 7.3561117290 -0.4132526369 -0.0000007588 7.5560905369 -0.4103408548 -0.0000007126 7.7560693450 -0.4074290735 -0.0000006775 7.9560481530 -0.4045172923 -0.0000006534 8.1560269608 -0.4016055124 -0.0000006381 8.3560057836 -0.3986937306 -0.0000006340 8.5559845915 -0.3957819467 -0.0000006348 8.7559633996 -0.3928701640 -0.0000006394 8.9559422080 -0.3899583812 -0.0000006489 9.1559210164 -0.3870465993 -0.0000006627 9.3558998403 -0.3841348147 -0.0000006813 9.5558786484 -0.3812230278 -0.0000006914 9.7558574566 -0.3783112421 -0.0000006918 9.9558362650 -0.3753994562 -0.0000006787 10.1558150728 -0.3724876710 -0.0000006520 10.3557938955 -0.3695758838 -0.0000005960 10.5557727028 -0.3666640944 -0.0000005495 10.7557515103 -0.3637523061 -0.0000005075 10.9557303174 -0.3608405177 -0.0000004747 11.1557091248 -0.3579287300 -0.0000004531 11.3556879417 -0.3550169406 -0.0000004399 11.5556667482 -0.3521051495 -0.0000004471 11.7556455537 -0.3491933591 -0.0000004588 11.9556243588 -0.3462815687 -0.0000004746 12.1556031645 -0.3433697785 -0.0000004955 12.3555819705 -0.3404579878 -0.0000005335 12.5555607753 -0.3375461971 -0.0000005888 12.7555395773 -0.3346344074 -0.0000006721 12.9555183804 -0.3317226171 -0.0000007582 13.1554971836 -0.3288108284 -0.0000008413 13.3554759850 -0.3258990398 -0.0000009031 13.5554547901 -0.3229872518 -0.0000009501 13.7554335918 -0.3200754627 -0.0000009762 13.9760768086 -0.3123833635 0.0000000000 14.1760761731 -0.3128872851 0.0000000000 14.3760755375 -0.3133912064 0.0000000000 14.5760749046 -0.3138951271 0.0000000000 14.7760742692 -0.3143990489 0.0000000000 14.9760736349 -0.3149029697 0.0000000000 15.1760730005 -0.3154068913 0.0000000000 15.3760723653 -0.3159108125 0.0000000000 15.5760717318 -0.3164147338 0.0000000000 15.7760710966 -0.3169186551 0.0000000000 15.9760704626 -0.3174225764 0.0000000000 16.1760698282 -0.3179264972 0.0000000000 16.4250640422 -0.2358050891 0.0000000134 16.6250357778 -0.2324428252 0.0000000132 16.8250075119 -0.2290805625 0.0000000130 17.0249792485 -0.2257182999 0.0000000128 17.2249509841 -0.2223560376 0.0000000125 17.4249227197 -0.2189937752 0.0000000123 17.6248944569 -0.2156315131 0.0000000119 17.8248661924 -0.2122692506 0.0000000116 18.0248379296 -0.2089069878 0.0000000112 18.2248096656 -0.2055447247 0.0000000107 18.4247814016 -0.2021824614 0.0000000102 18.6247531391 -0.1988201982 0.0000000097 18.8247248743 -0.1954579349 0.0000000092 19.0246966118 -0.1920956711 0.0000000087 19.2246683478 -0.1887334074 0.0000000082 19.4246400837 -0.1853711435 0.0000000077 19.6246118191 -0.1820088794 0.0000000072 -0.1456151878 -0.3492575650 -0.0000018424 0.0543636141 -0.3463457911 -0.0000018554 0.2543424179 -0.3434340164 -0.0000018732 0.4543212221 -0.3405222419 -0.0000018993 0.6543000253 -0.3376104671 -0.0000019299 0.8542788286 -0.3346986923 -0.0000019632 1.0542576322 -0.3317869173 -0.0000019987 1.2542364367 -0.3288751425 -0.0000020376 1.4542152415 -0.3259633676 -0.0000020785 1.6541940454 -0.3230515926 -0.0000021192 1.8541728496 -0.3201398177 -0.0000021605 2.0541516542 -0.3172280426 -0.0000022012 2.2541304603 -0.3143162677 -0.0000022378 2.4541092666 -0.3114044914 -0.0000022622 2.6540880716 -0.3084927150 -0.0000022765 2.8540668767 -0.3055809383 -0.0000022871 3.0540456821 -0.3026691615 -0.0000022971 3.2540244893 -0.2997573850 -0.0000023069 3.4540032967 -0.2968456071 -0.0000023045 3.6539821025 -0.2939338294 -0.0000022813 3.8539609084 -0.2910220518 -0.0000022324 4.0539397146 -0.2881102744 -0.0000021570 4.2539185227 -0.2851984972 -0.0000020596 4.4538973311 -0.2822867179 -0.0000019511 4.6538761375 -0.2793749386 -0.0000018479 4.8538549437 -0.2764631594 -0.0000017548 5.0538337502 -0.2735513803 -0.0000016705 5.2538125585 -0.2706396016 -0.0000015886 5.4537913670 -0.2677278212 -0.0000014982 5.6537701735 -0.2648160415 -0.0000013964 5.8537489801 -0.2619042619 -0.0000012866 6.0537277873 -0.2589924828 -0.0000011742 6.2537065970 -0.2560807041 -0.0000010664 6.4536854069 -0.2531689232 -0.0000009713 6.6536642145 -0.2502571430 -0.0000008867 6.8536430223 -0.2473453635 -0.0000008091 7.0536218308 -0.2444335845 -0.0000007369 7.2536006427 -0.2415218062 -0.0000006714 7.4535794548 -0.2386100244 -0.0000006186 7.6535582639 -0.2356982430 -0.0000005777 7.8535370730 -0.2327864618 -0.0000005477 8.0535158824 -0.2298746810 -0.0000005279 8.2534946951 -0.2269629008 -0.0000005170 8.4534735079 -0.2240511172 -0.0000005151 8.6534523173 -0.2211393342 -0.0000005182 8.8534311265 -0.2182275514 -0.0000005262 9.0534099361 -0.2153157689 -0.0000005391 9.2533887491 -0.2124039865 -0.0000005557 9.4533675621 -0.2094921999 -0.0000005703 9.6533463717 -0.2065804139 -0.0000005777 9.8533251808 -0.2036686281 -0.0000005741 10.0533039901 -0.2007568424 -0.0000005577 10.2532828026 -0.1978450570 -0.0000005274 10.4532616147 -0.1949332676 -0.0000004891 10.6532404235 -0.1920214790 -0.0000004547 10.8532192316 -0.1891096908 -0.0000004283 11.0531980396 -0.1861979026 -0.0000004120 11.2531768497 -0.1832861146 -0.0000004060 11.4531556594 -0.1803743236 -0.0000004121 11.6531344662 -0.1774625328 -0.0000004239 11.8531132721 -0.1745507425 -0.0000004375 12.0530920771 -0.1716389519 -0.0000004536 12.2530708832 -0.1687271613 -0.0000004778 12.4530496883 -0.1658153709 -0.0000005203 12.6530284922 -0.1629035802 -0.0000005821 12.8530072957 -0.1599917905 -0.0000006625 13.0529860983 -0.1570800013 -0.0000007468 13.2529649019 -0.1541682118 -0.0000008235 13.4529437051 -0.1512564246 -0.0000008826 13.6529225081 -0.1483446361 -0.0000009283 13.8765135323 -0.1389268750 0.0000000000 14.0765128987 -0.1394307946 0.0000000000 14.2765122642 -0.1399347157 0.0000000000 14.4765116297 -0.1404386374 0.0000000000 14.6765109952 -0.1409425585 0.0000000000 14.8765103607 -0.1414464799 0.0000000000 15.0765097260 -0.1419504013 0.0000000000 15.2765090913 -0.1424543224 0.0000000000 15.4765084572 -0.1429582441 0.0000000000 15.6765078225 -0.1434621649 0.0000000000 15.8765071883 -0.1439660860 0.0000000000 16.0765065511 -0.1444700094 -0.0000000000 16.3221663688 -0.0643056194 0.0000000130 16.5221381031 -0.0609433550 0.0000000128 16.7221098392 -0.0575810914 0.0000000126 16.9220815754 -0.0542188288 0.0000000123 17.1220533112 -0.0508565664 0.0000000121 17.3220250472 -0.0474943041 0.0000000119 17.5219967832 -0.0441320420 0.0000000115 17.7219685198 -0.0407697793 0.0000000112 17.9219402563 -0.0374075167 0.0000000108 18.1219119924 -0.0340452539 0.0000000104 18.3218837284 -0.0306829909 0.0000000099 18.5218554646 -0.0273207279 0.0000000094 18.7218272012 -0.0239584641 0.0000000089 18.9217989379 -0.0205962008 0.0000000084 19.1217706739 -0.0172339372 0.0000000079 19.3217424099 -0.0138716734 0.0000000074 19.5217141459 -0.0105094096 0.0000000069 19.7216858808 -0.0071471456 0.0000000064 -0.2481262603 -0.1775267294 -0.0000018869 -0.0481474578 -0.1746149552 -0.0000018956 0.1518313463 -0.1717031807 -0.0000019056 0.3518101484 -0.1687914061 -0.0000019211 0.5517889527 -0.1658796314 -0.0000019419 0.7517677560 -0.1629678566 -0.0000019657 0.9517465596 -0.1600560818 -0.0000019913 1.1517253638 -0.1571443071 -0.0000020183 1.3517041675 -0.1542325318 -0.0000020473 1.5516829722 -0.1513207571 -0.0000020771 1.7516617765 -0.1484089822 -0.0000021072 1.9516405808 -0.1454972072 -0.0000021365 2.1516193857 -0.1425854323 -0.0000021619 2.3515981913 -0.1396736562 -0.0000021779 2.5515769967 -0.1367618803 -0.0000021833 2.7515558018 -0.1338501039 -0.0000021837 2.9515346070 -0.1309383273 -0.0000021824 3.1515134124 -0.1280265506 -0.0000021806 3.3514922202 -0.1251147731 -0.0000021745 3.5514710262 -0.1222029956 -0.0000021535 3.7514498320 -0.1192912179 -0.0000021136 3.9514286379 -0.1163794405 -0.0000020504 4.1514074440 -0.1134676631 -0.0000019669 4.3513862533 -0.1105558846 -0.0000018668 4.5513650595 -0.1076441056 -0.0000017647 4.7513438659 -0.1047323265 -0.0000016684 4.9513226723 -0.1018205474 -0.0000015801 5.1513014788 -0.0989087683 -0.0000014959 5.3512802885 -0.0959969888 -0.0000014091 5.5512590952 -0.0930852089 -0.0000013117 5.7512379020 -0.09017342
[...]
      <PointData Scalars="radius">
        <DataArray type="Float32" Name="radius" format="ascii">
 0.1000000000 0.1000000000 0.1000000000 0.1000000000 0.1000000000 0.1000000000 0.1000000000 0.1000000000 0.1000000000 0.1000000000 0.1000000000 0.1000000000 0.1000000000 0.1000000000 0.1000000000 0.1000000000 0.1000000000 0.1000000000 0.1000000000 0.1000000000 0.1000000000 0.1000000000 0.1000000000 0.1000000000 0.1000000000 0.1000000000 0.1000000000 0.1000000000 0.1000000000 0.1000000000 0.1000000000 0.1000000000 0.1000000000 0.1000000000 0.1000000000 0.1000000000 0.1000000000 0.1000000000 0.1000000000 0.1000000000 0.1000000000 0.1000000000 0.1000000000 0.1000000000 0.1000000000 0.1000000000 0.1000000000 0.1000000000 0.1000000000 0.1000000000 0.1000000000 0.1000000000 0.1000000000 0.1000000000 0.1000000000 0.1000000000 0.1000000000 0.1000000000 0.1000000000 0.1000000000 0.1000000000 0.1000000000 0.1000000000 0.1000000000 0.1000000000 0.1000000000 0.1000000000 0.1000000000 0.1000000000 0.1000000000 0.1000000000 0.1000000000 0.1000000000 0.1000000000 0.1000000000 0.1000000000 0.1000000000 0.1000000000 0.1000000000 0.1000000000 0.1000000000 0.1000000000 0.1000000000 0.1000000000 0.1000000000 0.1000000000 0.1000000000 0.1000000000 0.1000000000 0.1000000000 0.1000000000 0.1000000000 0.1000000000 0.1000000000 0.1000000000 0.1000000000 0.1000000000 0.1000000000 0.1000000000 0.1000000000 0.1000000000 0.1000000000 0.1000000000 0.1000000000 0.1000000000 0.1000000000 0.1000000000 0.1000000000 0.1000000000 0.1000000000 0.1000000000 0.1000000000 0.1000000000 0.1000000000 0.1000000000 0.1000000000 0.1000000000 0.1000000000 0.1000000000 0.1000000000 0.1000000000 0.1000000000 0.1000000000 0.1000000000 0.1000000000 0.1000000000 0.1000000000 0.1000000000 0.1000000000 0.1000000000 0.1000000000 0.1000000000 0.1000000000 0.1000000000 0.1000000000 0.1000000000 0.1000000000 0.1000000000 0.1000000000 0.1000000000 0.1000000000 0.1000000000 0.1000000000 0.1000000000 0.1000000000 0.1000000000 0.1000000000 0.1000000000 0.1000000000 0.1000000000 0.1000000000 0.1000000000 0.1000000000 0.1000000000 0.1000000000 0.1000000000 0.1000000000 0.1000000000 0.1000000000 0.1000000000 0.1000000000 0.1000000000 0.1000000000 0.1000000000 0.1000000000 0.1000000000 0.1000000000 0.1000000000 0.1000000000 0.1000000000 0.1000000000 0.1000000000 0.1000000000 0.1000000000 0.1000000000 0.1000000000 0.1000000000 0.1000000000 0.1000000000 0.1000000000 0.1000000000 0.1000000000 0.1000000000 0.1000000000 0.1000000000 0.1000000000 0.1000000000 0.1000000000 0.1000000000 0.1000000000 0.1000000000 0.1000000000 0.1000000000 0.1000000000 0.1000000000 0.1000000000 0.1000000000 0.1000000000 0.1000000000 0.1000000000 0.1000000000 0.1000000000 0.1000000000 0.1000000000 0.1000000000 0.1000000000 0.1000000000 0.1000000000 0.1000000000 0.1000000000 0.1000000000 0.1000000000 0.1000000000 0.1000000000 0.1000000000 0.1000000000 0.1000000000 0.1000000000 0.1000000000 0.1000000000 0.1000000000 0.1000000000 0.1000000000 0.1000000000 0.1000000000 0.1000000000 0.1000000000 0.1000000000 0.1000000000 0.1000000000 0.1000000000 0.1000000000 0.1000000000 0.1000000000 0.1000000000 0.1000000000 0.1000000000 0.1000000000 0.1000000000 0.1000000000 0.1000000000 0.1000000000 0.1000000000 0.1000000000 0.1000000000 0.1000000000 0.1000000000 0.1000000000 0.1000000000 0.1000000000 0.1000000000 0.1000000000 0.1000000000 0.1000000000 0.1000000000 0.1000000000 0.1000000000 0.1000000000 0.1000000000 0.1000000000 0.1000000000 0.1000000000 0.1000000000 0.1000000000 0.1000000000 0.1000000000 0.1000000000 0.1000000000 0.1000000000 0.1000000000 0.1000000000 0.1000000000 0.1000000000 0.1000000000 0.1000000000 0.1000000000 0.1000000000 0.1000000000 0.1000000000 0.1000000000 0.1000000000 0.1000000000 0.1000000000 0.1000000000 0.1000000000 0.1000000000 0.1000000000 0.1000000000 0.1000000000 0.1000000000 0.1000000000 0.1000000000 0.1000000000 0.1000000000 0.1000000000 0.1000000000 0.1000000000 0.1000000000 0.1000000000 0.1000000000 0.1000000000 0.1000000000 0.1000000000 0.1000000000 0.1000000000 0.1000000000 0.1000000000 0.1000000000 0.1000000000 0.1000000000 0.1000000000 0.1000000000 0.1000000000 0.1000000000 0.1000000000 0.1000000000 0.1000000000 0.1000000000 0.1000000000 0.1000000000 0.1000000000 0.1000000000 0.1000000000 0.1000000000 0.1000000000 0.1000000000 0.1000000000 0.1000000000 0.1000000000 0.1000000000 0.1000000000 0.1000000000 0.1000000000 0.1000000000 0.1000000000 0.1000000000 0.1000000000 0.1000000000 0.1000000000 0.1000000000 0.1000000000 0.1000000000 0.1000000000 0.1000000000 0.1000000000 0.1000000000 0.1000000000 0.1000000000 0.1000000000 0.1000000000 0.1000000000 0.1000000000 0.1000000000 0.1000000000 0.1000000000 0.1000000000 0.1000000000 0.1000000000 0.1000000000 0.1000000000 0.1000000000 0.1000000000 0.1000000000 0.1000000000 0.1000000000 0.1000000000 0.1000000000 0.1000000000 0.1000000000 0.1000000000 0.1000000000 0.1000000000 0.1000000000 0.1000000000 0.1000000000 0.1000000000 0.1000000000 0.1000000000 0.1000000000 0.1000000000 0.1000000000 0.1000000000 0.1000000000 0.1000000000 0.1000000000 0.1000000000 0.1000000000 0.1000000000 0.1000000000 0.1000000000 0.1000000000 0.1000000000 0.1000000000 0.1000000000 0.1000000000 0.1000000000 0.1000000000 0.1000000000 0.1000000000 0.1000000000 0.1000000000 0.1000000000 0.1000000000 0.1000000000 0.1000000000 0.1000000000 0.1000000000 0.1000000000 0.1000000000 0.1000000000 0.1000000000 0.1000000000 0.1000000000 0.1000000000 0.1000000000 0.1000000000 0.1000000000 0.1000000000 0.1000000000 0.1000000000 0.1000000000 0.1000000000 0.1000000000 0.1000000000 0.1000000000 0.1000000000 0.1000000000 0.1000000000 0.1000000000 0.1000000000 0.1000000000 0.1000000000 0.1000000000 0.1000000000 0.1000000000 0.1000000000 0.1000000000 0.1000000000 0.1000000000 0.1000000000 0.1000000000 0.1000000000 0.1000000000 0.1000000000 0.1000000000 0.1000000000 0.1000000000 0.1000000000 0.1000000000 0.1000000000 0.1000000000 0.1000000000 0.1000000000 0.1000000000 0.1000000000 0.1000000000 0.1000000000 0.1000000000 0.1000000000 0.1000000000 0.1000000000 0.1000000000 0.1000000000 0.1000000000 0.1000000000 0.1000000000 0.1000000000 0.1000000000 0.1000000000 0.1000000000 0.1000000000 0.1000000000 0.1000000000 0.1000000000 0.1000000000 0.1000000000 0.1000000000 0.1000000000 0.1000000000 0.1000000000 0.1000000000 0.1000000000 0.1000000000 0.1000000000 0.1000000000 0.1000000000 0.1000000000 0.1000000000 0.1000000000 0.1000000000 0.1000000000 0.1000000000 0.1000000000 0.1000000000 0.1000000000 0.1000000000 0.1000000000 0.1000000000 0.1000000000 0.1000000000 0.1000000000 0.1000000000 0.1000000000 0.1000000000 0.1000000000 0.1000000000 0.1000000000 0.1000000000 0.1000000000 0.1000000000 0.1000000000 0.1000000000 0.1000000000 0.1000000000 0.1000000000 0.1000000000 0.1000000000 0.1000000000 0.1000000000 0.1000000000 0.1000000000 0.1000000000 0.1000000000 0.1000000000 0.1000000000 0.1000000000 0.1000000000 0.1000000000 0.1000000000 0.1000000000 0.1000000000 0.1000000000 0.1000000000 0.1000000000 0.1000000000 0.1000000000 0.1000000000 0.1000000000 0.1000000000 0.1000000000 0.1000000000 0.1000000000 0.1000000000 0.1000000000 0.1000000000 0.1000000000 0.1000000000 0.1000000000 0.1000000000 0.1000000000 0.1000000000 0.1000000000 0.1000000000 0.1000000000 0.1000000000 0.1000000000 0.1000000000 0.1000000000 0.1000000000 0.1000000000 0.1000000000 0.1000000000 0.1000000000 0.1000000000 0.1000000000 0.1000000000 0.1000000000 0.1000000000 0.1000000000 0.1000000000 0.1000000000 0.1000000000 0.1000000000 0.1000000000 0.1000000000 0.1000000000 0.1000000000 0.1000000000 0.1000000000 0.1000000000 0.1000000000 0.1000000000 0.1000000000 0.1000000000 0.1000000000 0.1000000000 0.1000000000 0.1000000000 0.1000000000 0.1000000000 0.1000000000 0.1000000000 0.1000000000 0.1000000000 0.1000000000 0.1000000000 0.1000000000 0.1000000000 0.1000000000 0.1000000000 0.1000000000 0.1000000000 0.1000000000 0.1000000000 0.1000000000 0.1000000000 0.1000000000 0.1000000000 0.1000000000 0.1000000000 0.1000000000 0.1000000000 0.1000000000 0.1000000000 0.1000000000 0.1000000000 0.1000000000 0.1000000000 0.1000000000 0.1000000000 0.1000000000 0.1000000000 0.1000000000 0.1000000000 0.1000000000 0.1000000000 0.1000000000 0.1000000000 0.1000000000 0.1000000000 0.1000000000 0.1000000000 0.1000000000 0.1000000000 0.1000000000 0.1000000000 0.1000000000 0.1000000000 0.1000000000 0.1000000000 0.1000000000 0.1000000000 0.1000000000 0.1000000000 0.1000000000 0.1000000000 0.1000000000 0.1000000000 0.1000000000 0.1000000000 0.1000000000 0.1000000000 0.1000000000 0.1000000000 0.1000000000 0.1000000000 0.1000000000 0.1000000000 0.1000000000 0.1000000000 0.1000000000 0.1000000000 0.1000000000 0.1000000000 0.1000000000 0.1000000000 0.1000000000 0.1000000000 0.1000000000 0.1000000000 0.1000000000 0.1000000000 0.1000000000 0.1000000000 0.1000000000 0.1000000000 0.1000000000 0.1000000000 0.1000000000 0.1000000000 0.1000000000 0.1000000000 0.1000000000 0.1000000000 0.1000000000 0.1000000000 0.1000000000 0.1000000000 0.1000000000 0.1000000000 0.1000000000 0.1000000000 0.1000000000 0.1000000000 0.1000000000 0.1000000000 0.1000000000 0.1000000000 0.1000000000 0.1000000000 0.1000000000 0.1000000000 0.1000000000 0.1000000000 0.1000000000 0.1000000000 0.1000000000 0.1000000000 0.1000000000 0.1000000000 0.1000000000 0.1000000000 0.1000000000 0.1000000000 0.1000000000 0.1000000000 0.1000000000 0.1000000000 0.1000000000 0.1000000000 0.1000000000 0.1000000000 0.1000000000 0.1000000000 0.1000000000 0.1000000000 0.1000000000 0.1000000000 0.1000000000 0.1000000000 0.1000000000 0.1000000000 0.1000000000 0.1000000000 0.1000000000 0.1000000000 0.1000000000 0.1000000000 0.1000000000 0.1000000000 0.1000000000 0.1000000000 0.1000000000 0.1000000000 0.1000000000 0.1000000000 0.1000000000 0.1000000000 0.1000000000 0.1000000000 0.1000000000 0.1000000000 0.1000000000 0.1000000000 0.1000000000 0.1000000000 0.1000000000 0.1000000000 0.1000000000 0.1000000000 0.1000000000 0.1000000000 0.1000000000 0.1000000000 0.1000000000 0.1000000000 0.1000000000 0.1000000000 0.1000000000 0.1000000000 0.1000000000 0.1000000000 0.1000000000 0.1000000000 0.1000000000 0.1000000000 0.1000000000 0.1000000000 0.1000000000 0.1000000000 0.1000000000 0.1000000000 0.1000000000 0.1000000000 0.1000000000 0.1000000000 0.1000000000 0.1000000000 0.1000000000 0.1000000000 0.1000000000 0.1000000000 0.1000000000 0.1000000000 0.1000000000 0.1000000000 0.1000000000 0.1000000000 0.1000000000 0.1000000000 0.1000000000 0.1000000000 0.1000000000 0.1000000000 0.1000000000 0.1000000000 0.1000000000 0.1000000000 0.1000000000 0.1000000000 0.1000000000 0.1000000000 0.1000000000 0.1000000000 0.1000000000 0.1000000000 0.1000000000 0.1000000000 0.1000000000 0.1000000000 0.1000000000 0.1000000000 0.1000000000 0.1000000000 0.1000000000 0.1000000000 0.1000000000 0.1000000000 0.1000000000 0.1000000000 0.1000000000 0.1000000000 0.1000000000 0.1000000000 0.1000000000 0.1000000000 0.1000000000 0.1000000000 0.1000000000 0.1000000000 0.1000000000 0.1000000000 0.1000000000 0.1000000000 0.1000000000 0.1000000000 0.1000000000 0.1000000000 0.1000000000 0.1000000000 0.1000000000 0.1000000000 0.1000000000 0.1000000000 0.1000000000 0.1000000000 0.1000000000 0.1000000000 0.1000000000 0.1000000000 0.1000000000 0.1000000000 0.1000000000 0.1000000000 0.1000000000 0.1000000000 0.1000000000 0.1000000000 0.1000000000 0.1000000000 0.1000000000 0.1000000000 0.1000000000 0.1000000000 0.1000000000 0.1000000000 0.1000000000 0.1000000000 0.1000000000 0.1000000000 0.1000000000 0.1000000000 0.1000000000 0.1000000000 0.1000000000 0.1000000000 0.1000000000 0.1000000000 0.1000000000 0.1000000000 0.1000000000 0.1000000000 0.1000000000 0.1000000000 0.1000000000 0.1000000000 0.1000000000 0.1000000000 0.1000000000 0.1000000000 0.1000000000 0.1000000000 0.1000000000 0.1000000000 0.1000000000 0.1000000000 0.1000000000 0.1000000000 0.1000000000 0.1000000000 0.1000000000 0.1000000000 0.1000000000 0.1000000000 0.1000000000 0.1000000000 0.1000000000 0.1000000000 0.1000000000 0.1000000000 0.1000000000 0.1000000000 0.1000000000 0.1000000000 0.1000000000 0.1000000000 0.1000000000 0.1000000000 0.1000000000 0.1000000000 0.1000000000 0.1000000000 0.1000000000 0.1000000000 0.1000000000 0.1000000000 0.1000000000 0.1000000000 0.1000000000 0.1000000000 0.1000000000 0.1000000000 0.1000000000 0.1000000000 0.1000000000 0.1000000000 0.1000000000 0.1000000000 0.1000000000 0.1000000000 0.1000000000 0.1000000000 0.1000000000 0.1000000000 0.1000000000 0.1000000000 0.1000000000 0.1000000000 0.1000000000 0.1000000000 0.1000000000 0.1000000000 0.1000000000 0.1000000000 0.1000000000 0.1000000000 0.1000000000 0.1000000000 0.1000000000 0.1000000000 0.1000000000 0.1000000000 0.1000000000 0.1000000000 0.1000000000 0.1000000000 0.1000000000 0.1000000000 0.1000000000 0.1000000000 0.1000000000 0.1000000000 0.1000000000 0.1000000000 0.1000000000 0.1000000000 0.1000000000 0.1000000000 0.1000000000 0.1000000000 0.1000000000 0.1000000000 0.1000000000 0.1000000000 0.1000000000 0.1000000000 0.1000000000 0.1000000000 0.1000000000 0.1000000000 0.1000000000 0.1000000000 0.1000000000 0.1000000000 0.1000000000 0.1000000000 0.1000000000 0.1000000000 0.1000000000 0.1000000000 0.1000000000 0.1000000000 0.1000000000 0.1000000000 0.1000000000 0.1000000000 0.1000000000 0.1000000000 0.1000000000 0.1000000000 0.1000000000 0.1000000000 0.1000000000 0.1000000000 0.1000000000 0.1000000000 0.1000000000 0.1000000000 0.1000000000 0.1000000000 0.1000000000 0.1000000000 0.1000000000 0.1000000000 0.1000000000 0.1000000000 0.1000000000 0.1000000000 0.1000000000 0.1000000000 0.1000000000 0.1000000000 0.1000000000 0.1000000000 0.1000000000 0.1000000000 0.1000000000 0.1000000000 0.1000000000 0.1000000000 0.1000000000 0.1000000000 0.1000000000 0.1000000000 0.1000000000 0.1000000000 0.1000000000 0.1000000000 0.1000000000 0.1000000000 0.1000000000 0.1000000000 0.1000000000 0.1000000000 0.1000000000 0.1000000000 0.1000000000 0.1000000000 0.1000000000 0.1000000000 0.1000000000 0.1000000000 0.1000000000 0.1000000000 0.1000000000 0.1000000000 0.1000000000 0.1000000000 0.1000000000 0.1000000000 0.1000000000 0.1000000000 0.1000000000 0.1000000000 0.1000000000 0.1000000000 0.1000000000 0.1000000000 0.1000000000 0.1000000000 0.1000000000 0.1000000000 0.1000000000 0.1000000000 0.1000000000 0.1000000000 0.1000000000 0.1000000000 0.1000000000 0.1000000000 0.1000000000 0.1000000000 0.1000000000 0.1000000000 0.1000000000 0.1000000000 0.1000000000 0.1000000000 0.1000000000 0.1000000000 0.1000000000 0.1000000000 0.1000000000 0.1000000000 0.1000000000 0.1000000000 0.1000000000 0.1000000000 0.1000000000 0.1000000000 0.1000000000 0.1000000000 0.1000000000 0.1000000000 0.1000000000 0.1000000000 0.1000000000 0.1000000000 0.1000000000 0.1000000000 0.1000000000 0.1000000000 0.1000000000 0.1000000000 0.1000000000 0.1000000000 0.1000000000 0.1000000000 0.1000000000 0.1000000000 0.1000000000 0.1000000000 0.1000000000 0.1000000000 0.1000000000 0.1000000000 0.1000000000 0.1000000000 0.1000000000 0.1000000000 0.1000000000 0.1000000000 0.1000000000 0.1000000000 0.1000000000 0.1000000000 0.1000000000 0.1000000000 0.1000000000 0.1000000000 0.1000000000 0.1000000000 0.1000000000 0.1000000000 0.1000000000 0.1000000000 0.1000000000 0.1000000000 0.1000000000 0.1000000000 0.1000000000 0.1000000000 0.1000000000 0.1000000000 0.1000000000 0.1000000000 0.1000000000 0.1000000000 0.1000000000 0.1000000000 0.1000000000 0.1000000000 0.1000000000 0.1000000000 0.1000000000 0.1000000000 0.1000000000 0.1000000000 0.1000000000 0.1000000000 0.1000000000 0.1000000000 0.1000000000 0.1000000000 0.1000000000 0.1000000000 0.1000000000 0.1000000000 0.1000000000 0.1000000000 0.1000000000 0.1000000000 0.1000000000 0.1000000000 0.1000000000 0.1000000000 0.1000000000 0.1000000000 0.1000000000 0.1000000000 0.1000000000 0.1000000000 0.1000000000 0.1000000000 0.1000000000 0.1000000000 0.1000000000 0.1000000000 0.1000000000 0.1000000000 0.1000000000 0.1000000000 0.1000000000 0.1000000000 0.1000000000 0.1000000000 0.1000000000 0.1000000000 0.1000000000 0.1000000000 0.1000000000 0.1000000000 0.1000000000 0.1000000000 0.1000000000 0.1000000000 0.1000000000 0.1000000000 0.1000000000 0.1000000000 0.1000000000 0.1000000000 0.1000000000 0.1000000000 0.1000000000 0.1000000000 0.1000000000 0.1000000000 0.1000000000 0.1000000000 0.1000000000 0.1000000000 0.1000000000 0.1000000000 0.1000000000 0.1000000000 0.1000000000 0.1000000000 0.1000000000 0.1000000000 0.1000000000 0.1000000000 0.1000000000 0.1000000000 0.1000000000 0.1000000000 0.1000000000 0.1000000000 0.1000000000 0.1000000000 0.1000000000 0.1000000000 0.1000000000 0.1000000000 0.1000000000 0.1000000000 0.1000000000 0.1000000000 0.1000000000 0.1000000000 0.1000000000 0.1000000000 0.1000000000 0.1000000000 0.1000000000 0.1000000000 0.1000000000 0.1000000000 0.1000000000 0.1000000000 0.1000000000 0.1000000000 0.1000000000 0.1000000000 0.1000000000 0.1000000000 0.1000000000 0.1000000000 0.1000000000 0.1000000000 0.1000000000 0.1000000000 0.1000000000 0.1000000000 0.1000000000 0.1000000000 0.1000000000 0.1000000000 0.1000000000 0.1000000000 0.1000000000 0.1000000000 0.1000000000 0.1000000000 0.1000000000 0.1000000000 0.1000000000 0.1000000000 0.1000000000 0.1000000000 0.1000000000 0.1000000000 0.1000000000 0.1000000000 0.1000000000 0.1000000000 0.1000000000 0.1000000000 0.1000000000 0.1000000000 0.1000000000 0.1000000000 0.1000000000 0.1000000000 0.1000000000 0.1000000000 0.1000000000 0.1000000000 0.1000000000 0.1000000000 0.1000000000 0.1000000000 0.1000000000 0.1000000000 0.1000000000 0.1000000000 0.1000000000 0.1000000000 0.1000000000 0.1000000000 0.1000000000 0.1000000000 0.1000000000 0.1000000000 0.1000000000 0.1000000000 0.1000000000 0.1000000000 0.1000000000 0.1000000000 0.1000000000 0.1000000000 0.1000000000 0.1000000000 0.1000000000 0.1000000000 0.1000000000 0.1000000000 0.1000000000 0.1000000000 0.1000000000 0.1000000000 0.1000000000 0.1000000000 0.1000000000 0.1000000000 0.1000000000 0.1000000000 0.1000000000 0.1000000000 0.1000000000 0.1000000000 0.1000000000 0.1000000000 0.1000000000 0.1000000000 0.1000000000 0.1000000000 0.1000000000 0.1000000000 0.1000000000 0.1000000000 0.1000000000 0.1000000000 0.1000000000 0.1000000000 0.1000000000 0.1000000000 0.1000000000 0.1000000000 0.1000000000 0.1000000000 0.1000000000 0.1000000000 0.1000000000 0.1000000000 0.1000000000 0.1000000000 0.1000000000 0.1000000000 0.1000000000 0.1000000000 0.1000000000 0.1000000000 0.1000000000 0.1000000000 0.1000000000 0.1000000000 0.1000000000 0.1000000000 0.1000000000 0.1000000000 0.1000000000 0.1000000000 0.1000000000 0.1000000000 0.1000000000 0.1000000000 0.1000000000 0.1000000000 0.1000000000 0.1000000000 0.1000000000 0.1000000000 0.1000000000 0.1000000000 0.1000000000 0.1000000000 0.1000000000 0.1000000000 0.1000000000 0.1000000000 0.1000000000 0.1000000000 0.1000000000 0.1000000000 0.1000000000 0.1000000000 0.1000000000 0.1000000000 0.1000000000 0.1000000000 0.1000000000 0.1000000000 0.1000000000 0.1000000000 0.1000000000 0.1000000000 0.1000000000 0.1000000000 0.1000000000 0.1000000000 0.1000000000 0.1000000000 0.1000000000 0.1000000000 0.1000000000 0.1000000000 0.1000000000 0.1000000000 0.1000000000 0.1000000000 0.1000000000 0.1000000000 0.1000000000 0.1000000000 0.1000000000 0.1000000000 0.1000000000 0.1000000000 0.1000000000 0.1000000000 0.1000000000 0.1000000000 0.1000000000 0.1000000000 0.1000000000 0.1000000000 0.1000000000 0.1000000000 0.1000000000 0.1000000000 0.1000000000 0.1000000000 0.1000000000 0.1000000000 0.1000000000 0.1000000000 0.1000000000 0.1000000000 0.1000000000 0.1000000000 0.1000000000 0.1000000000 0.1000000000 0.1000000000 0.1000000000 0.1000000000 0.1000000000 0.1000000000 0.1000000000 0.1000000000 0.1000000000 0.1000000000 0.1000000000 0.1000000000 0.1000000000 0.1000000000 0.1000000000 0.1000000000 0.1000000000 0.1000000000 0.1000000000 0.1000000000 0.1000000000 0.1000000000 0.1000000000 0.1000000000 0.1000000000 0.1000000000 0.10000000