<?xml version="1.0"?>
<VTKFile type="UnstructuredGrid" version="0.1" byte_order="LittleEndian">
  <UnstructuredGrid>
    <FieldData>
      <DataArray type="Float32" Name="TIME"  NumberOfTuples="1" format="ascii"> 0.9500000000 </DataArray>
      <DataArray type="Int32"   Name="STEP"  NumberOfTuples="1" format="ascii"> 237500 </DataArray>
    </FieldData>
    <Piece NumberOfPoints="11600" NumberOfCells="11600">
      <Points>
        <DataArray type="Float32" NumberOfComponents="3" format="ascii">
 -0.1489342258 -0.3430113556 0.0000000000 0.0510555934 -0.3409937394 0.0000000000 0.2510454132 -0.3389761288 0.0000000000 0.4510352256 -0.3369585229 0.0000000000 0.6510250436 -0.3349409201 0.0000000000 0.8510148605 -0.3329233191 0.0000000000 1.0510046775 -0.3309057190 0.0000000000 1.2509944959 -0.3288881198 0.0000000000 1.4509843100 -0.3268705207 0.0000000000 1.6509741293 -0.3248529212 0.0000000000 1.8509639480 -0.3228353215 0.0000000000 2.0509537673 -0.3208177215 0.0000000000 2.2509435873 -0.3188001209 0.0000000000 2.4509334042 -0.3167825193 0.0000000000 2.6509232241 -0.3147649158 0.0000000000 2.8509130427 -0.3127473118 0.0000000000 3.0509028601 -0.3107297067 0.0000000000 3.2508926772 -0.3087121013 0.0000000000 3.4508824861 -0.3066944959 0.0000000000 3.6508723002 -0.3046768919 0.0000000000 3.8508621117 -0.3026592897 0.0000000000 4.0508519221 -0.3006416895 0.0000000000 4.2508417325 -0.2986240909 0.0000000000 4.4508315308 -0.2966064954 0.0000000000 4.6508213391 -0.2945889018 0.0000000000 4.8508111458 -0.2925713102 0.0000000000 5.0508009517 -0.2905537208 0.0000000000 5.2507907581 -0.2885361334 0.0000000000 5.4507805504 -0.2865185497 0.0000000000 5.6507703566 -0.2845009695 0.0000000000 5.8507601621 -0.2824833916 0.0000000000 6.0507499683 -0.2804658156 0.0000000000 6.2507397760 -0.2784482406 0.0000000000 6.4507295720 -0.2764306668 0.0000000000 6.6507193800 -0.2744130941 0.0000000000 6.8507091867 -0.2723955227 0.0000000000 7.0506989935 -0.2703779530 0.0000000000 7.2506888016 -0.2683603847 0.0000000000 7.4506785977 -0.2663428175 0.0000000000 7.6506684060 -0.2643252514 0.0000000000 7.8506582130 -0.2623076860 0.0000000000 8.0506480197 -0.2602901224 0.0000000000 8.2506378272 -0.2582725603 0.0000000000 8.4506276222 -0.2562550017 0.0000000000 8.6506174301 -0.2542374452 0.0000000000 8.8506072375 -0.2522198912 0.0000000000 9.0505970457 -0.2502023393 0.0000000000 9.2505868556 -0.2481847892 0.0000000000 9.4505766554 -0.2461672407 0.0000000000 9.6505664662 -0.2441496938 0.0000000000 9.8505562763 -0.2421321483 0.0000000000 10.0505460871 -0.2401146043 0.0000000000 10.2505358992 -0.2380970609 0.0000000000 10.4505257028 -0.2360795184 0.0000000000 10.6505155153 -0.2340619755 0.0000000000 10.8505053269 -0.2320444336 0.0000000000 11.0504951382 -0.2300268935 0.0000000000 11.2504849510 -0.2280093556 0.0000000000 11.4504747553 -0.2259918198 0.0000000000 11.6504645691 -0.2239742854 0.0000000000 11.8504543821 -0.2219567519 0.0000000000 12.0504441957 -0.2199392201 0.0000000000 12.2504340109 -0.2179216903 0.0000000000 12.4504238201 -0.2159041620 0.0000000000 12.6504136380 -0.2138866355 0.0000000000 12.8504034517 -0.2118691105 0.0000000000 13.0503932716 -0.2098515849 0.0000000000 13.2503830926 -0.2078340609 0.0000000000 13.4503729118 -0.2058165371 0.0000000000 13.6503627362 -0.2037990135 0.0000000000 13.8503525586 -0.2017814880 0.0000000000 14.0607726344 -0.1979735794 -0.0000000000 14.2607724852 -0.1982174211 -0.0000000000 14.4607723360 -0.1984612625 0.0000000000 14.6607721894 -0.1987051032 0.0000000000 14.8607720403 -0.1989489449 0.0000000000 15.0607718923 -0.1991927857 0.0000000000 15.2607717442 -0.1994366272 0.0000000000 15.4607715952 -0.1996804683 0.0000000000 15.6607714480 -0.1999243094 0.0000000000 15.8607712991 -0.2001681506 0.0000000000 16.0607711513 -0.2004119917 0.0000000000 16.2607710031 -0.2006558324 0.0000000000 16.4915804910 -0.1501517301 0.0000000009 16.6915693349 -0.1480392486 0.0000000009 16.8915581787 -0.1459267699 0.0000000009 17.0915470260 -0.1438142914 0.0000000009 17.2915358716 -0.1417018152 0.0000000009 17.4915247172 -0.1395893423 0.0000000009 17.6915135650 -0.1374768724 0.0000000008 17.8915024230 -0.1353644066 0.0000000008 18.0914912711 -0.1332519367 0.0000000007 18.2914801187 -0.1311394677 0.0000000007 18.4914689666 -0.1290269985 0.0000000006 18.6914578156 -0.1269145303 0.0000000006 18.8914466741 -0.1248020621 0.0000000005 19.0914355239 -0.1226895902 0.0000000005 19.2914243731 -0.1205771164 0.0000000005 19.4914132207 -0.1184646395 0.0000000004 19.6914020648 -0.1163521614 0.0000000004 -0.0506866198 -0.1688062784 0.0000000000 0.1493032005 -0.1667886669 0.0000000000 0.3492930205 -0.1647710580 0.0000000000 0.5492828394 -0.1627534543 0.0000000000 0.7492726573 -0.1607358525 0.0000000000 0.9492624750 -0.1587182518 0.0000000000 1.1492522927 -0.1567006520 0.0000000000 1.3492421103 -0.1546830527 0.0000000000 1.5492319282 -0.1526654539 0.0000000000 1.7492217464 -0.1506478545 0.0000000000 1.9492115650 -0.1486302547 0.0000000000 2.1492013836 -0.1466126541 0.0000000000 2.3491912022 -0.1445950529 0.0000000000 2.5491810205 -0.1425774504 0.0000000000 2.7491708383 -0.1405598468 0.0000000000 2.9491606556 -0.1385422418 0.0000000000 3.1491504717 -0.1365246361 0.0000000000 3.3491402863 -0.1345070300 0.0000000000 3.5491300999 -0.1324894256 0.0000000000 3.7491199129 -0.1304718223 0.0000000000 3.9491097249 -0.1284542207 0.0000000000 4.1490995352 -0.1264366210 0.0000000000 4.3490893433 -0.1244190231 0.0000000000 4.5490791506 -0.1224014289 0.0000000000 4.7490689583 -0.1203838363 0.0000000000 4.9490587657 -0.1183662455 0.0000000000 5.1490485721 -0.1163486567 0.0000000000 5.3490383762 -0.1143310705 0.0000000000 5.5490281804 -0.1123134890 0.0000000000 5.7490179862 -0.1102959103 0.0000000000 5.9490077928 -0.1082783333 0.0000000000 6.1489975993 -0.1062607577 0.0000000000 6.3489874044 -0.1042431827 0.0000000000 6.5489772096 -0.1022256097 0.0000000000 6.7489670163 -0.1002080378 0.0000000000 6.9489568235 -0.0981904672 0.0000000000 7.1489466302 -0.0961728979 0.0000000000 7.3489364353 -0.0941553294 0.0000000000 7.5489262406 -0.0921377633 0.0000000000 7.7489160474 -0.0901201978 0.0000000000 7.9489058548 -0.0881026334 0.0000000000 8.1488956617 -0.0860850704 0.0000000000 8.3488854673 -0.0840675094 0.0000000000 8.5488752731 -0.0820499523 0.0000000000 8.7488650809 -0.0800323975 0.0000000000 8.9488548897 -0.0780148446 0.0000000000 9.1488446985 -0.0759972937 0.0000000000 9.3488345067 -0.0739797440 0.0000000000 9.5488243152 -0.0719621968 0.0000000000 9.7488141254 -0.0699446508 0.0000000000 9.9488039364 -0.0679271061 0.0000000000 10.1487937472 -0.0659095624 0.0000000000 10.3487835572 -0.0638920190 0.0000000000 10.5487733675 -0.0618744764 0.0000000000 10.7487631791 -0.0598569344 0.0000000000 10.9487529914 -0.0578393935 0.0000000000 11.1487428035 -0.0558218543 0.0000000000 11.3487326149 -0.0538043171 0.0000000000 11.5487224268 -0.0517867826 0.0000000000 11.7487122400 -0.0497692489 0.0000000000 11.9487020541 -0.0477517166 0.0000000000 12.1486918683 -0.0457341854 0.0000000000 12.3486816830 -0.0437166563 0.0000000000 12.5486714986 -0.0416991301 0.0000000000 12.7486613152 -0.0396816041 0.0000000000 12.9486511336 -0.0376640798 0.0000000000 13.1486409531 -0.0356465556 0.0000000000 13.3486307744 -0.0336290310 0.0000000000 13.5486205965 -0.0316115087 0.0000000000 13.7486104194 -0.0295939847 0.0000000000 13.9609838792 -0.0246467098 -0.0000000000 14.1609837319 -0.0248905495 0.0000000000 14.3609835837 -0.0251343907 0.0000000000 14.5609834355 -0.0253782324 0.0000000000 14.7609832872 -0.0256220735 0.0000000000 14.9609831390 -0.0258659149 0.0000000000 15.1609829905 -0.0261097562 0.0000000000 15.3609828421 -0.0263535972 0.0000000000 15.5609826942 -0.0265974388 0.0000000000 15.7609825458 -0.0268412794 0.0000000000 15.9609823978 -0.0270851203 0.0000000000 16.1609822469 -0.0273289636 0.0000000000 16.3897566064 0.0219874460 0.0000000008 16.5897454486 0.0240999284 0.0000000009 16.7897342943 0.0262124088 0.0000000009 16.9897231413 0.0283248866 0.0000000009 17.1897119889 0.0304373639 0.0000000009 17.3897008373 0.0325498382 0.0000000008 17.5896896863 0.0346623093 0.0000000008 17.7896785381 0.0367747774 0.0000000008 17.9896673901 0.0388872456 0.0000000007 18.1896562394 0.0409997145 0.0000000007 18.3896450885 0.0431121830 0.0000000006 18.5896339382 0.0452246517 0.0000000006 18.7896227900 0.0473371200 0.0000000005 18.9896116422 0.0494495905 0.0000000005 19.1896004911 0.0515620632 0.0000000005 19.3895893385 0.0536745389 0.0000000004 19.5895781841 0.0557870173 0.0000000004 19.7895670267 0.0578994953 0.0000000004 -0.1524288300 0.0033811883 0.0000000000 0.0475609912 0.0053987973 0.0000000000 0.2475508135 0.0074164065 0.0000000000 0.4475406321 0.0094340122 0.0000000000 0.6475304527 0.0114516149 0.0000000000 0.8475202719 0.0134692160 0.0000000000 1.0475100908 0.0154868161 0.0000000000 1.2474999100 0.0175044154 0.0000000000 1.4474897258 0.0195220149 0.0000000000 1.6474795449 0.0215396136 0.0000000000 1.8474693637 0.0235572131 0.0000000000 2.0474591823 0.0255748133 0.0000000000 2.2474490014 0.0275924141 0.0000000000 2.4474388171 0.0296100163 0.0000000000 2.6474286357 0.0316276194 0.0000000000 2.8474184532 0.0336452240 0.0000000000 3.0474082702 0.0356628294 0.0000000000 3.2473980871 0.0376804355 0.0000000000 3.4473878988 0.0396980406 0.0000000000 3.6473777142 0.0417156446 0.0000000000 3.8473675280 0.0437332473 0.0000000000 4.0473573410 0.0457508481 0.0000000000 4.2473471537 0.0477684471 0.0000000000 4.4473369592 0.0497860433 0.0000000000 4.6473267701 0.0518036370 0.0000000000 4.8473165798 0.0538212288 0.0000000000 5.0473063888 0.0558388187 0.0000000000 5.2472961983 0.0578564064 0.0000000000 5.4472859998 0.0598739902 0.0000000000 5.6472758090 0.0618915706 0.0000000000 5.8472656173 0.0639091486 0.0000000000 6.0472554255 0.0659267251 0.0000000000 6.2472452346 0.0679443006 0.0000000000 6.4472350359 0.0699618744 0.0000000000 6.6472248451 0.0719794471 0.0000000000 6.8472146535 0.0739970187 0.0000000000 7.047204
[...]
      <PointData Scalars="radius">
        <DataArray type="Float32" Name="radius" format="ascii">
 0.1000000000 0.1000000000 0.1000000000 0.1000000000 0.1000000000 0.1000000000 0.1000000000 0.1000000000 0.1000000000 0.1000000000 0.1000000000 0.1000000000 0.1000000000 0.1000000000 0.1000000000 0.1000000000 0.1000000000 0.1000000000 0.1000000000 0.1000000000 0.1000000000 0.1000000000 0.1000000000 0.1000000000 0.1000000000 0.1000000000 0.1000000000 0.1000000000 0.1000000000 0.1000000000 0.1000000000 0.1000000000 0.1000000000 0.1000000000 0.1000000000 0.1000000000 0.1000000000 0.1000000000 0.1000000000 0.1000000000 0.1000000000 0.1000000000 0.1000000000 0.1000000000 0.1000000000 0.1000000000 0.1000000000 0.1000000000 0.1000000000 0.1000000000 0.1000000000 0.1000000000 0.1000000000 0.1000000000 0.1000000000 0.1000000000 0.1000000000 0.1000000000 0.1000000000 0.1000000000 0.1000000000 0.1000000000 0.1000000000 0.1000000000 0.1000000000 0.1000000000 0.1000000000 0.1000000000 0.1000000000 0.1000000000 0.1000000000 0.1000000000 0.1000000000 0.1000000000 0.1000000000 0.1000000000 0.1000000000 0.1000000000 0.1000000000 0.1000000000 0.1000000000 0.1000000000 0.1000000000 0.1000000000 0.1000000000 0.1000000000 0.1000000000 0.1000000000 0.1000000000 0.1000000000 0.1000000000 0.1000000000 0.1000000000 0.1000000000 0.1000000000 0.1000000000 0.1000000000 0.1000000000 0.1000000000 0.1000000000 0.1000000000 0.1000000000 0.1000000000 0.1000000000 0.1000000000 0.1000000000 0.1000000000 0.1000000000 0.1000000000 0.1000000000 0.1000000000 0.1000000000 0.1000000000 0.1000000000 0.1000000000 0.1000000000 0.1000000000 0.1000000000 0.1000000000 0.1000000000 0.1000000000 0.1000000000 0.1000000000 0.1000000000 0.1000000000 0.1000000000 0.1000000000 0.1000000000 0.1000000000 0.1000000000 0.1000000000 0.1000000000 0.1000000000 0.1000000000 0.1000000000 0.1000000000 0.1000000000 0.1000000000 0.1000000000 0.1000000000 0.1000000000 0.1000000000 0.1000000000 0.1000000000 0.1000000000 0.1000000000 0.1000000000 0.1000000000 0.1000000000 0.1000000000 0.1000000000 0.1000000000 0.1000000000 0.1000000000 0.1000000000 0.1000000000 0.1000000000 0.1000000000 0.1000000000 0.1000000000 0.1000000000 0.1000000000 0.1000000000 0.1000000000 0.1000000000 0.1000000000 0.1000000000 0.1000000000 0.1000000000 0.1000000000 0.1000000000 0.1000000000 0.1000000000 0.1000000000 0.1000000000 0.1000000000 0.1000000000 0.1000000000 0.1000000000 0.1000000000 0.1000000000 0.1000000000 0.1000000000 0.1000000000 0.1000000000 0.1000000000 0.1000000000 0.1000000000 0.1000000000 0.1000000000 0.1000000000 0.1000000000 0.1000000000 0.1000000000 0.1000000000 0.1000000000 0.1000000000 0.1000000000 0.1000000000 0.1000000000 0.1000000000 0.1000000000 0.1000000000 0.1000000000 0.1000000000 0.1000000000 0.1000000000 0.1000000000 0.1000000000 0.1000000000 0.1000000000 0.1000000000 0.1000000000 0.1000000000 0.1000000000 0.1000000000 0.1000000000 0.1000000000 0.1000000000 0.1000000000 0.1000000000 0.1000000000 0.1000000000 0.1000000000 0.1000000000 0.1000000000 0.1000000000 0.1000000000 0.1000000000 0.1000000000 0.1000000000 0.1000000000 0.1000000000 0.1000000000 0.1000000000 0.1000000000 0.1000000000 0.1000000000 0.1000000000 0.1000000000 0.1000000000 0.1000000000 0.1000000000 0.1000000000 0.1000000000 0.1000000000 0.1000000000 0.1000000000 0.1000000000 0.1000000000 0.1000000000 0.1000000000 0.1000000000 0.1000000000 0.1000000000 0.1000000000 0.1000000000 0.1000000000 0.1000000000 0.1000000000 0.1000000000 0.1000000000 0.1000000000 0.1000000000 0.1000000000 0.1000000000 0.1000000000 0.1000000000 0.1000000000 0.1000000000 0.1000000000 0.1000000000 0.1000000000 0.1000000000 0.1000000000 0.1000000000 0.1000000000 0.1000000000 0.1000000000 0.1000000000 0.1000000000 0.1000000000 0.1000000000 0.1000000000 0.1000000000 0.1000000000 0.1000000000 0.1000000000 0.1000000000 0.1000000000 0.1000000000 0.1000000000 0.1000000000 0.1000000000 0.1000000000 0.1000000000 0.1000000000 0.1000000000 0.1000000000 0.1000000000 0.1000000000 0.1000000000 0.1000000000 0.1000000000 0.1000000000 0.1000000000 0.1000000000 0.1000000000 0.1000000000 0.1000000000 0.1000000000 0.1000000000 0.1000000000 0.1000000000 0.1000000000 0.1000000000 0.1000000000 0.1000000000 0.1000000000 0.1000000000 0.1000000000 0.1000000000 0.1000000000 0.1000000000 0.1000000000 0.1000000000 0.1000000000 0.1000000000 0.1000000000 0.1000000000 0.1000000000 0.1000000000 0.1000000000 0.1000000000 0.1000000000 0.1000000000 0.1000000000 0.1000000000 0.1000000000 0.1000000000 0.1000000000 0.1000000000 0.1000000000 0.1000000000 0.1000000000 0.1000000000 0.1000000000 0.1000000000 0.1000000000 0.1000000000 0.1000000000 0.1000000000 0.1000000000 0.1000000000 0.1000000000 0.1000000000 0.1000000000 0.1000000000 0.1000000000 0.1000000000 0.1000000000 0.1000000000 0.1000000000 0.1000000000 0.1000000000 0.1000000000 0.1000000000 0.1000000000 0.1000000000 0.1000000000 0.1000000000 0.1000000000 0.1000000000 0.1000000000 0.1000000000 0.1000000000 0.1000000000 0.1000000000 0.1000000000 0.1000000000 0.1000000000 0.1000000000 0.1000000000 0.1000000000 0.1000000000 0.1000000000 0.1000000000 0.1000000000 0.1000000000 0.1000000000 0.1000000000 0.1000000000 0.1000000000 0.1000000000 0.1000000000 0.1000000000 0.1000000000 0.1000000000 0.1000000000 0.1000000000 0.1000000000 0.1000000000 0.1000000000 0.1000000000 0.1000000000 0.1000000000 0.1000000000 0.1000000000 0.1000000000 0.1000000000 0.1000000000 0.1000000000 0.1000000000 0.1000000000 0.1000000000 0.1000000000 0.1000000000 0.1000000000 0.1000000000 0.1000000000 0.1000000000 0.1000000000 0.1000000000 0.1000000000 0.1000000000 0.1000000000 0.1000000000 0.1000000000 0.1000000000 0.1000000000 0.1000000000 0.1000000000 0.1000000000 0.1000000000 0.1000000000 0.1000000000 0.1000000000 0.1000000000 0.1000000000 0.1000000000 0.1000000000 0.1000000000 0.1000000000 0.1000000000 0.1000000000 0.1000000000 0.1000000000 0.1000000000 0.1000000000 0.1000000000 0.1000000000 0.1000000000 0.1000000000 0.1000000000 0.1000000000 0.1000000000 0.1000000000 0.1000000000 0.1000000000 0.1000000000 0.1000000000 0.1000000000 0.1000000000 0.1000000000 0.1000000000 0.1000000000 0.1000000000 0.1000000000 0.1000000000 0.1000000000 0.1000000000 0.1000000000 0.1000000000 0.1000000000 0.1000000000 0.1000000000 0.1000000000 0.1000000000 0.1000000000 0.1000000000 0.1000000000 0.1000000000 0.1000000000 0.1000000000 0.1000000000 0.1000000000 0.1000000000 0.1000000000 0.1000000000 0.1000000000 0.1000000000 0.1000000000 0.1000000000 0.1000000000 0.1000000000 0.1000000000 0.1000000000 0.1000000000 0.1000000000 0.1000000000 0.1000000000 0.1000000000 0.1000000000 0.1000000000 0.1000000000 0.1000000000 0.1000000000 0.1000000000 0.1000000000 0.1000000000 0.1000000000 0.1000000000 0.1000000000 0.1000000000 0.1000000000 0.1000000000 0.1000000000 0.1000000000 0.1000000000 0.1000000000 0.1000000000 0.1000000000 0.1000000000 0.1000000000 0.1000000000 0.1000000000 0.1000000000 0.1000000000 0.1000000000 0.1000000000 0.1000000000 0.1000000000 0.1000000000 0.1000000000 0.1000000000 0.1000000000 0.1000000000 0.1000000000 0.1000000000 0.1000000000 0.1000000000 0.1000000000 0.1000000000 0.1000000000 0.1000000000 0.1000000000 0.1000000000 0.1000000000 0.1000000000 0.1000000000 0.1000000000 0.1000000000 0.1000000000 0.1000000000 0.1000000000 0.1000000000 0.1000000000 0.1000000000 0.1000000000 0.1000000000 0.1000000000 0.1000000000 0.1000000000 0.1000000000 0.1000000000 0.1000000000 0.1000000000 0.1000000000 0.1000000000 0.1000000000 0.1000000000 0.1000000000 0.1000000000 0.1000000000 0.1000000000 0.1000000000 0.1000000000 0.1000000000 0.1000000000 0.1000000000 0.1000000000 0.1000000000 0.1000000000 0.1000000000 0.1000000000 0.1000000000 0.1000000000 0.1000000000 0.1000000000 0.1000000000 0.1000000000 0.1000000000 0.1000000000 0.1000000000 0.1000000000 0.1000000000 0.1000000000 0.1000000000 0.1000000000 0.1000000000 0.1000000000 0.1000000000 0.1000000000 0.1000000000 0.1000000000 0.1000000000 0.1000000000 0.1000000000 0.1000000000 0.1000000000 0.1000000000 0.1000000000 0.1000000000 0.1000000000 0.1000000000 0.1000000000 0.1000000000 0.1000000000 0.1000000000 0.1000000000 0.1000000000 0.1000000000 0.1000000000 0.1000000000 0.1000000000 0.1000000000 0.1000000000 0.1000000000 0.1000000000 0.1000000000 0.1000000000 0.1000000000 0.1000000000 0.1000000000 0.1000000000 0.1000000000 0.1000000000 0.1000000000 0.1000000000 0.1000000000 0.1000000000 0.1000000000 0.1000000000 0.1000000000 0.1000000000 0.1000000000 0.1000000000 0.1000000000 0.1000000000 0.1000000000 0.1000000000 0.1000000000 0.1000000000 0.1000000000 0.1000000000 0.1000000000 0.1000000000 0.1000000000 0.1000000000 0.1000000000 0.1000000000 0.1000000000 0.1000000000 0.1000000000 0.1000000000 0.1000000000 0.1000000000 0.1000000000 0.1000000000 0.1000000000 0.1000000000 0.1000000000 0.1000000000 0.1000000000 0.1000000000 0.1000000000 0.1000000000 0.1000000000 0.1000000000 0.1000000000 0.1000000000 0.1000000000 0.1000000000 0.1000000000 0.1000000000 0.1000000000 0.1000000000 0.1000000000 0.1000000000 0.1000000000 0.1000000000 0.1000000000 0.1000000000 0.1000000000 0.1000000000 0.1000000000 0.1000000000 0.1000000000 0.1000000000 0.1000000000 0.1000000000 0.1000000000 0.1000000000 0.1000000000 0.1000000000 0.1000000000 0.1000000000 0.1000000000 0.1000000000 0.1000000000 0.1000000000 0.1000000000 0.1000000000 0.1000000000 0.1000000000 0.1000000000 0.1000000000 0.1000000000 0.1000000000 0.1000000000 0.1000000000 0.1000000000 0.1000000000 0.1000000000 0.1000000000 0.1000000000 0.1000000000 0.1000000000 0.1000000000 0.1000000000 0.1000000000 0.1000000000 0.1000000000 0.1000000000 0.1000000000 0.1000000000 0.1000000000 0.1000000000 0.1000000000 0.1000000000 0.1000000000 0.1000000000 0.1000000000 0.1000000000 0.1000000000 0.1000000000 0.1000000000 0.1000000000 0.1000000000 0.1000000000 0.1000000000 0.1000000000 0.1000000000 0.1000000000 0.1000000000 0.1000000000 0.1000000000 0.1000000000 0.1000000000 0.1000000000 0.1000000000 0.1000000000 0.1000000000 0.1000000000 0.1000000000 0.1000000000 0.1000000000 0.1000000000 0.1000000000 0.1000000000 0.1000000000 0.1000000000 0.1000000000 0.1000000000 0.1000000000 0.1000000000 0.1000000000 0.1000000000 0.1000000000 0.1000000000 0.1000000000 0.1000000000 0.1000000000 0.1000000000 0.1000000000 0.1000000000 0.1000000000 0.1000000000 0.1000000000 0.1000000000 0.1000000000 0.1000000000 0.1000000000 0.1000000000 0.1000000000 0.1000000000 0.1000000000 0.1000000000 0.1000000000 0.1000000000 0.1000000000 0.1000000000 0.1000000000 0.1000000000 0.1000000000 0.1000000000 0.1000000000 0.1000000000 0.1000000000 0.1000000000 0.1000000000 0.1000000000 0.1000000000 0.1000000000 0.1000000000 0.1000000000 0.1000000000 0.1000000000 0.1000000000 0.1000000000 0.1000000000 0.1000000000 0.1000000000 0.1000000000 0.1000000000 0.1000000000 0.1000000000 0.1000000000 0.1000000000 0.1000000000 0.1000000000 0.1000000000 0.1000000000 0.1000000000 0.1000000000 0.1000000000 0.1000000000 0.1000000000 0.1000000000 0.1000000000 0.1000000000 0.1000000000 0.1000000000 0.1000000000 0.1000000000 0.1000000000 0.1000000000 0.1000000000 0.1000000000 0.1000000000 0.1000000000 0.1000000000 0.1000000000 0.1000000000 0.1000000000 0.1000000000 0.1000000000 0.1000000000 0.1000000000 0.1000000000 0.1000000000 0.1000000000 0.1000000000 0.1000000000 0.1000000000 0.1000000000 0.1000000000 0.1000000000 0.1000000000 0.1000000000 0.1000000000 0.1000000000 0.1000000000 0.1000000000 0.1000000000 0.1000000000 0.1000000000 0.1000000000 0.1000000000 0.1000000000 0.1000000000 0.1000000000 0.1000000000 0.1000000000 0.1000000000 0.1000000000 0.1000000000 0.1000000000 0.1000000000 0.1000000000 0.1000000000 0.1000000000 0.1000000000 0.1000000000 0.1000000000 0.1000000000 0.1000000000 0.1000000000 0.1000000000 0.1000000000 0.1000000000 0.1000000000 0.1000000000 0.1000000000 0.1000000000 0.1000000000 0.1000000000 0.1000000000 0.1000000000 0.1000000000 0.1000000000 0.1000000000 0.1000000000 0.1000000000 0.1000000000 0.1000000000 0.1000000000 0.1000000000 0.1000000000 0.1000000000 0.1000000000 0.1000000000 0.1000000000 0.1000000000 0.1000000000 0.1000000000 0.1000000000 0.1000000000 0.1000000000 0.1000000000 0.1000000000 0.1000000000 0.1000000000 0.1000000000 0.1000000000 0.1000000000 0.1000000000 0.1000000000 0.1000000000 0.1000000000 0.1000000000 0.1000000000 0.1000000000 0.1000000000 0.1000000000 0.1000000000 0.1000000000 0.1000000000 0.1000000000 0.1000000000 0.1000000000 0.1000000000 0.1000000000 0.1000000000 0.1000000000 0.1000000000 0.1000000000 0.1000000000 0.1000000000 0.1000000000 0.1000000000 0.1000000000 0.1000000000 0.1000000000 0.1000000000 0.1000000000 0.1000000000 0.1000000000 0.1000000000 0.1000000000 0.1000000000 0.1000000000 0.1000000000 0.1000000000 0.1000000000 0.1000000000 0.1000000000 0.1000000000 0.1000000000 0.1000000000 0.1000000000 0.1000000000 0.1000000000 0.1000000000 0.1000000000 0.1000000000 0.1000000000 0.1000000000 0.1000000000 0.1000000000 0.1000000000 0.1000000000 0.1000000000 0.1000000000 0.1000000000 0.1000000000 0.1000000000 0.1000000000 0.1000000000 0.1000000000 0.1000000000 0.1000000000 0.1000000000 0.1000000000 0.1000000000 0.1000000000 0.1000000000 0.1000000000 0.1000000000 0.1000000000 0.1000000000 0.1000000000 0.1000000000 0.1000000000 0.1000000000 0.1000000000 0.1000000000 0.1000000000 0.1000000000 0.1000000000 0.1000000000 0.1000000000 0.1000000000 0.1000000000 0.1000000000 0.1000000000 0.1000000000 0.1000000000 0.1000000000 0.1000000000 0.1000000000 0.1000000000 0.1000000000 0.1000000000 0.1000000000 0.1000000000 0.1000000000 0.1000000000 0.1000000000 0.1000000000 0.1000000000 0.1000000000 0.1000000000 0.1000000000 0.1000000000 0.1000000000 0.1000000000 0.1000000000 0.1000000000 0.1000000000 0.1000000000 0.1000000000 0.1000000000 0.1000000000 0.1000000000 0.1000000000 0.1000000000 0.1000000000 0.1000000000 0.1000000000 0.1000000000 0.1000000000 0.1000000000 0.1000000000 0.1000000000 0.1000000000 0.1000000000 0.1000000000 0.1000000000 0.1000000000 0.1000000000 0.1000000000 0.1000000000 0.1000000000 0.1000000000 0.1000000000 0.1000000000 0.1000000000 0.1000000000 0.1000000000 0.1000000000 0.1000000000 0.1000000000 0.1000000000 0.1000000000 0.1000000000 0.1000000000 0.1000000000 0.1000000000 0.1000000000 0.1000000000 0.1000000000 0.1000000000 0.1000000000 0.1000000000 0.1000000000 0.1000000000 0.1000000000 0.1000000000 0.1000000000 0.1000000000 0.1000000000 0.1000000000 0.1000000000 0.1000000000 0.1000000000 0.1000000000 0.1000000000 0.1000000000 0.1000000000 0.1000000000 0.1000000000 0.1000000000 0.1000000000 0.1000000000 0.1000000000 0.1000000000 0.1000000000 0.1000000000 0.1000000000 0.1000000000 0.1000000000 0.1000000000 0.1000000000 0.1000000000 0.1000000000 0.1000000000 0.1000000000 0.1000000000 0.1000000000 0.1000000000 0.1000000000 0.1000000000 0.1000000000 0.1000000000 0.1000000000 0.1000000000 0.1000000000 0.1000000000 0.1000000000 0.1000000000 0.1000000000 0.1000000000 0.1000000000 0.1000000000 0.1000000000 0.1000000000 0.1000000000 0.1000000000 0.1000000000 0.1000000000 0.1000000000 0.1000000000 0.1000000000 0.1000000000 0.1000000000 0.1000000000 0.1000000000 0.1000000000 0.1000000000 0.1000000000 0.1000000000 0.1000000000 0.1000000000 0.1000000000 0.1000000000 0.1000000000 0.1000000000 0.1000000000 0.1000000000 0.1000000000 0.1000000000 0.1000000000 0.1000000000 0.1000000000 0.1000000000 0.1000000000 0.1000000000 0.1000000000 0.1000000000 0.1000000000 0.1000000000 0.1000000000 0.1000000000 0.1000000000 0.1000000000 0.1000000000 0.1000000000 0.1000000000 0.1000000000 0.1000000000 0.1000000000 0.1000000000 0.1000000000 0.1000000000 0.1000000000 0.1000000000 0.1000000000 0.1000000000 0.1000000000 0.1000000000 0.1000000000 0.1000000000 0.1000000000 0.1000000000 0.1000000000 0.1000000000 0.1000000000 0.1000000000 0.1000000000 0.1000000000 0.1000000000 0.1000000000 0.1000000000 0.1000000000 0.1000000000 0.1000000000 0.1000000000 0.1000000000 0.1000000000 0.1000000000 0.1000000000 0.1000000000 0.1000000000 0.1000000000 0.1000000000 0.1000000000 0.1000000000 0.1000000000 0.1000000000 0.1000000000 0.1000000000 0.1000000000 0.1000000000 0.1000000000 0.1000000000 0.1000000000 0.1000000000 0.1000000000 0.1000000000 0.1000000000 0.1000000000 0.1000000000 0.1000000000 0.1000000000 0.1000000000 0.1000000000 0.1000000000 0.1000000000 0.1000000000 0.1000000000 0.1000000000 0.1000000000 0.1000000000 0.1000000000 0.1000000000 0.1000000000 0.1000000000 0.1000000000 0.1000000000 0.1000000000 0.1000000000 0.1000000000 0.1000000000 0.1000000000 0.1000000000 0.1000000000 0.1000000000 0.1000000000 0.1000000000 0.1000000000 0.1000000000 0.1000000000 0.1000000000 0.1000000000 0.1000000000 0.1000000000 0.1000000000 0.1000000000 0.1000000000 0.1000000000 0.1000000000 0.1000000000 0.1000000000 0.1000000000 0.1000000000 0.1000000000 0.1000000000 0.1000000000 0.1000000000 0.1000000000 0.1000000000 0.1000000000 0.1000000000 0.1000000000 0.1000000000 0.1000000000 0.1000000000 0.1000000000 0.1000000000 0.1000000000 0.1000000000 0.1000000000 0.1000000000 0.1000000000 0.1000000000 0.1000000000 0.1000000000 0.1000000000 0.1000000000 0.1000000000 0.1000000000 0.1000000000 0.1000000000 0.1000000000 0.1000000000 0.1000000000 0.1000000000 0.1000000000 0.1000000000 0.1000000000 0.1000000000 0.1000000000 0.1000000000 0.1000000000 0.1000000000 0.1000000000 0.1000000000 0.1000000000 0.1000000000 0.1000000000 0.1000000000 0.1000000000 0.1000000000 0.1000000000 0.1000000000 0.1000000000 0.1000000000 0.1000000000 0.1000000000 0.1000000000 0.1000000000 0.1000000000 0.1000000000 0.1000000000 0.1000000000 0.1000000000 0.1000000000 0.1000000000 0.1000000000 0.1000000000 0.1000000000 0.1000000000 0.1000000000 0.1000000000 0.1000000000 0.1000000000 0.1000000000 0.1000000000 0.1000000000 0.1000000000 0.1000000000 0.1000000000 0.1000000000 0.1000000000 0.1000000000 0.1000000000 0.1000000000 0.1000000000 0.1000000000 0.1000000000 0.1000000000 0.1000000000 0.1000000000 0.1000000000 0.1000000000 0.1000000000 0.1000000000 0.1000000000 0.1000000000 0.1000000000 0.1000000000 0.1000000000 0.1000000000 0.1000000000 0.1000000000 0.1000000000 0.1000000000 0.1000000000 0.1000000000 0.1000000000 0.1000000000 0.1000000000 0.1000000000 0.1000000000 0.1000000000 0.1000000000 0.1000000000 0.1000000000 0.1000000000 0.1000000000 0.1000000000 0.1000000000 0.1000000000 0.1000000000 0.1000000000 0.1000000000 0.1000000000 0.1000000000 0.1000000000 0.1000000000 0.1000000000 0.1000000000 0.1000000000 0.1000000000 0.1000000000 0.1000000000 0.1000000000 0.1000000000 0.1000000000 0.1000000000 0.1000000000 0.1000000000 0.1000000000 0.1000000000 0.1000000000 0.1000000000 0.1000000000 0.1000000000 0.1000000000 0.1000000000 0.1000000000 0.1000000000 0.1000000000 0.1000000000 0.1000000000 0.1000000000 0.1000000000 0.1000000000 0.1000000000 0.1000000000 0.1000000000 0.1000000000 0.1000000000 0.1000000000 0.1000000000 0.1000000000 0.1000000000 0.1000000000 0.1000000000 0.1000000000 0.1000000000 0.1000000000 0.1000000000 0.1000000000 0.1000000000 0.1000000000 0.1000000000 0.1000000000 0.1000000000 0.1000000000 0.1000000000 0.1000000000 0.1000000000 0.1000000000 0.1000000000 0.1000000000 0.1000000000 0.1000000000 0.1000000000 0.1000000000 0.1000000000 0.1000000000 0.1000000000 0.1000000000 0.1000000000 0.1000000000 0.1000000000 0.1000000000 0.1000000000 0.1000000000 0.1000000000 0.1000000000 0.1000000000 0.1000000000 0.1000000000 0.1000000000 0.1000000000 0.1000000000 0.1000000000 0.1000000000 0.1000000000 0.1000000000 0.1000000000 0.1000000000 0.1000000000 0.1000000000 0.1000000000 0.1000000000 0.1000000000 0.1000000000 0.1000000000 0.1000000000 0.1000000000 0.1000000000 0.1000000000 0.1000000000 0.1000000000 0.1000000000 0.1000000000 0.1000000000 0.1000000000 0.1000000000 0.1000000000 0.1000000000 0.1000000000 0.1000000000 0.1000000000 0.1000000000 0.1000000000 0.1000000000 0.1000000000 0.1000000000 0.1000000000 0.1000000000 0.1000000000 0.1000000000 0.1000000000 0.1000000000 0.1000000000 0.10000000