<?xml version="1.0"?>
<VTKFile type="UnstructuredGrid" version="0.1" byte_order="LittleEndian">
  <UnstructuredGrid>
    <FieldData>
      <DataArray type="Float32" Name="TIME"  NumberOfTuples="1" format="ascii"> 1.0000000000 </DataArray>
      <DataArray type="Int32"   Name="STEP"  NumberOfTuples="1" format="ascii"> 250000 </DataArray>
    </FieldData>
    <Piece NumberOfPoints="11600" NumberOfCells="11600">
      <Points>
        <DataArray type="Float32" NumberOfComponents="3" format="ascii">
 -0.1570963913 -0.3600363028 0.0000000000 0.0428925529 -0.3579335338 0.0000000000 0.2428814997 -0.3558307654 0.0000000000 0.4428704438 -0.3537279964 0.0000000000 0.6428593902 -0.3516252261 0.0000000000 0.8428483350 -0.3495224553 0.0000000000 1.0428372794 -0.3474196834 0.0000000000 1.2428262237 -0.3453169114 0.0000000000 1.4428151650 -0.3432141386 0.0000000000 1.6428041083 -0.3411113650 0.0000000000 1.8427930502 -0.3390085913 0.0000000000 2.0427819914 -0.3369058171 0.0000000000 2.2427709322 -0.3348030424 0.0000000000 2.4427598670 -0.3327002687 0.0000000000 2.6427488070 -0.3305974951 0.0000000000 2.8427377454 -0.3284947218 0.0000000000 3.0427266825 -0.3263919488 0.0000000000 3.2427156189 -0.3242891771 0.0000000000 3.4427045446 -0.3221864076 0.0000000000 3.6426934786 -0.3200836408 0.0000000000 3.8426824108 -0.3179808755 0.0000000000 4.0426713430 -0.3158781119 0.0000000000 4.2426602759 -0.3137753496 0.0000000000 4.4426491977 -0.3116725903 0.0000000000 4.6426381301 -0.3095698347 0.0000000000 4.8426270625 -0.3074670816 0.0000000000 5.0426159961 -0.3053643294 0.0000000000 5.2426049319 -0.3032615766 0.0000000000 5.4425938611 -0.3011588242 0.0000000000 5.6425827992 -0.2990560731 0.0000000000 5.8425717382 -0.2969533232 0.0000000000 6.0425606788 -0.2948505743 0.0000000000 6.2425496212 -0.2927478259 0.0000000000 6.4425385619 -0.2906450779 0.0000000000 6.6425275048 -0.2885423296 0.0000000000 6.8425164460 -0.2864395812 0.0000000000 7.0425053858 -0.2843368328 0.0000000000 7.2424943254 -0.2822340851 0.0000000000 7.4424832582 -0.2801313375 0.0000000000 7.6424721968 -0.2780285896 0.0000000000 7.8424611344 -0.2759258411 0.0000000000 8.0424500712 -0.2738230929 0.0000000000 8.2424390082 -0.2717203463 0.0000000000 8.4424279378 -0.2696176020 0.0000000000 8.6424168752 -0.2675148589 0.0000000000 8.8424058124 -0.2654121158 0.0000000000 9.0423947499 -0.2633093719 0.0000000000 9.2423836882 -0.2612066276 0.0000000000 9.4423726195 -0.2591038826 0.0000000000 9.6423615577 -0.2570011369 0.0000000000 9.8423504951 -0.2548983907 0.0000000000 10.0423394326 -0.2527956441 0.0000000000 10.2423283704 -0.2506928968 0.0000000000 10.4423173016 -0.2485901502 0.0000000000 10.6423062396 -0.2464874047 0.0000000000 10.8422951773 -0.2443846601 0.0000000000 11.0422841150 -0.2422819161 0.0000000000 11.2422730537 -0.2401791734 0.0000000000 11.4422619861 -0.2380764325 0.0000000000 11.6422509254 -0.2359736936 0.0000000000 11.8422398642 -0.2338709561 0.0000000000 12.0422288037 -0.2317682201 0.0000000000 12.2422177445 -0.2296654858 0.0000000000 12.4422066797 -0.2275627533 0.0000000000 12.6421956200 -0.2254600234 0.0000000000 12.8421845524 -0.2233572999 0.0000000000 13.0421734923 -0.2212545819 0.0000000000 13.2421624338 -0.2191518681 0.0000000000 13.4421513729 -0.2170491555 0.0000000000 13.6421403187 -0.2149464442 0.0000000000 13.8421292623 -0.2128437325 0.0000000000 14.0534511673 -0.2086938740 0.0000000000 14.2534509862 -0.2089626278 0.0000000000 14.4534508050 -0.2092313814 0.0000000000 14.6534506265 -0.2095001343 0.0000000000 14.8534504455 -0.2097688882 0.0000000000 15.0534502655 -0.2100376412 0.0000000000 15.2534500854 -0.2103063950 0.0000000000 15.4534499045 -0.2105751483 0.0000000000 15.6534497253 -0.2108439016 0.0000000000 15.8534495444 -0.2111126552 0.0000000000 16.0534493647 -0.2113814085 0.0000000000 16.2534491845 -0.2116501615 0.0000000000 16.4859242051 -0.1581574154 -0.0000000005 16.6859117779 -0.1559278066 -0.0000000004 16.8858993521 -0.1536981982 -0.0000000002 17.0858869271 -0.1514685896 -0.0000000001 17.2858745004 -0.1492389826 0.0000000000 17.4858620734 -0.1470093752 0.0000000002 17.6858496469 -0.1447797671 0.0000000003 17.8858372170 -0.1425501565 0.0000000004 18.0858247873 -0.1403205439 0.0000000005 18.2858123554 -0.1380909336 0.0000000005 18.4857999226 -0.1358613268 0.0000000006 18.6857874909 -0.1336317235 0.0000000006 18.8857750559 -0.1314021237 0.0000000007 19.0857626259 -0.1291725248 0.0000000007 19.2857501953 -0.1269429258 0.0000000007 19.4857377655 -0.1247133270 0.0000000008 19.6857253360 -0.1224837276 0.0000000008 -0.0589229700 -0.1857894116 0.0000000000 0.1410659743 -0.1836866435 0.0000000000 0.3410549197 -0.1815838744 0.0000000000 0.5410438650 -0.1794811049 0.0000000000 0.7410328094 -0.1773783344 0.0000000000 0.9410217534 -0.1752755628 0.0000000000 1.1410106969 -0.1731727904 0.0000000000 1.3409996400 -0.1710700178 0.0000000000 1.5409885825 -0.1689672447 0.0000000000 1.7409775242 -0.1668644711 0.0000000000 1.9409664652 -0.1647616969 0.0000000000 2.1409554053 -0.1626589219 0.0000000000 2.3409443445 -0.1605561472 0.0000000000 2.5409332832 -0.1584533739 0.0000000000 2.7409222217 -0.1563506004 0.0000000000 2.9409111595 -0.1542478271 0.0000000000 3.1409000958 -0.1521450542 0.0000000000 3.3408890301 -0.1500422828 0.0000000000 3.5408779633 -0.1479395151 0.0000000000 3.7408668963 -0.1458367487 0.0000000000 3.9408558292 -0.1437339842 0.0000000000 4.1408447617 -0.1416312212 0.0000000000 4.3408336932 -0.1395284600 0.0000000000 4.5408226248 -0.1374257031 0.0000000000 4.7408115576 -0.1353229488 0.0000000000 4.9408004911 -0.1332201962 0.0000000000 5.1407894252 -0.1311174440 0.0000000000 5.3407783596 -0.1290146915 0.0000000000 5.5407672955 -0.1269119403 0.0000000000 5.7407562337 -0.1248091905 0.0000000000 5.9407451738 -0.1227064414 0.0000000000 6.1407341153 -0.1206036928 0.0000000000 6.3407230576 -0.1185009447 0.0000000000 6.5407120000 -0.1163981966 0.0000000000 6.7407009418 -0.1142954479 0.0000000000 6.9406898826 -0.1121926992 0.0000000000 7.1406788218 -0.1100899505 0.0000000000 7.3406677592 -0.1079872022 0.0000000000 7.5406566960 -0.1058844544 0.0000000000 7.7406456329 -0.1037817065 0.0000000000 7.9406345700 -0.1016789581 0.0000000000 8.1406235067 -0.0995762104 0.0000000000 8.3406124424 -0.0974734646 0.0000000000 8.5406013782 -0.0953707211 0.0000000000 8.7405903145 -0.0932679783 0.0000000000 8.9405792512 -0.0911652347 0.0000000000 9.1405681875 -0.0890624905 0.0000000000 9.3405571232 -0.0869597455 0.0000000000 9.5405460588 -0.0848570003 0.0000000000 9.7405349953 -0.0827542547 0.0000000000 9.9405239321 -0.0806515084 0.0000000000 10.1405128687 -0.0785487614 0.0000000000 10.3405018048 -0.0764460143 0.0000000000 10.5404907413 -0.0743432684 0.0000000000 10.7404796790 -0.0722405237 0.0000000000 10.9404686173 -0.0701377797 0.0000000000 11.1404575556 -0.0680350362 0.0000000000 11.3404464936 -0.0659322940 0.0000000000 11.5404354321 -0.0638295544 0.0000000000 11.7404243715 -0.0617268164 0.0000000000 11.9404133118 -0.0596240800 0.0000000000 12.1404022522 -0.0575213447 0.0000000000 12.3403911931 -0.0554186107 0.0000000000 12.5403801337 -0.0533158802 0.0000000000 12.7403690744 -0.0512131522 0.0000000000 12.9403580154 -0.0491104324 0.0000000000 13.1403469567 -0.0470077169 0.0000000000 13.3403358993 -0.0449050032 0.0000000000 13.5403248431 -0.0428022928 0.0000000000 13.7403137884 -0.0406995816 0.0000000000 13.9536840027 -0.0353545760 0.0000000000 14.1536838235 -0.0356233278 0.0000000000 14.3536836433 -0.0358920812 0.0000000000 14.5536834632 -0.0361608351 0.0000000000 14.7536832829 -0.0364295884 0.0000000000 14.9536831028 -0.0366983419 0.0000000000 15.1536829224 -0.0369670955 0.0000000000 15.3536827420 -0.0372358487 0.0000000000 15.5536825622 -0.0375046025 0.0000000000 15.7536823818 -0.0377733554 0.0000000000 15.9536822019 -0.0380421087 0.0000000000 16.1536820190 -0.0383108643 0.0000000000 16.3839995224 0.0139220963 -0.0000000005 16.5839870931 0.0161517054 -0.0000000004 16.7839746670 0.0183813139 -0.0000000002 16.9839622420 0.0206109224 -0.0000000001 17.1839498164 0.0228405302 0.0000000000 17.3839373898 0.0250701374 0.0000000001 17.5839249618 0.0272997454 0.0000000003 17.7839125329 0.0295293554 0.0000000004 17.9839001033 0.0317589675 0.0000000005 18.1838876730 0.0339885789 0.0000000005 18.3838752425 0.0362181874 0.0000000006 18.5838628119 0.0384477921 0.0000000006 18.7838503813 0.0406773941 0.0000000007 18.9838379508 0.0429069928 0.0000000007 19.1838255202 0.0451365916 0.0000000008 19.3838130904 0.0473661903 0.0000000008 19.5838006610 0.0495957892 0.0000000008 19.7837882311 0.0518253888 0.0000000008 -0.1607384944 -0.0136452885 0.0000000000 0.0392504505 -0.0115425194 0.0000000000 0.2392393964 -0.0094397507 0.0000000000 0.4392283394 -0.0073369815 0.0000000000 0.6392172843 -0.0052342114 0.0000000000 0.8392062282 -0.0031314403 0.0000000000 1.0391951719 -0.0010286685 0.0000000000 1.2391841156 0.0010741040 0.0000000000 1.4391730562 0.0031768772 0.0000000000 1.6391619987 0.0052796505 0.0000000000 1.8391509401 0.0073824246 0.0000000000 2.0391398807 0.0094851993 0.0000000000 2.2391288215 0.0115879741 0.0000000000 2.4391177583 0.0136907482 0.0000000000 2.6391066981 0.0157935214 0.0000000000 2.8390956368 0.0178962949 0.0000000000 3.0390845746 0.0199990679 0.0000000000 3.2390735123 0.0221018400 0.0000000000 3.4390624444 0.0242046099 0.0000000000 3.6390513803 0.0263073776 0.0000000000 3.8390403148 0.0284101433 0.0000000000 4.0390292491 0.0305129067 0.0000000000 4.2390181844 0.0326156684 0.0000000000 4.4390071146 0.0347184274 0.0000000000 4.6389960504 0.0368211834 0.0000000000 4.8389849855 0.0389239370 0.0000000000 5.0389739205 0.0410266892 0.0000000000 5.2389628568 0.0431294411 0.0000000000 5.4389517895 0.0452321923 0.0000000000 5.6389407286 0.0473349426 0.0000000000 5.8389296686 0.0494376918 0.0000000000 6.0389186099 0.0515404404 0.0000000000 6.2389075526 0.0536431887 0.0000000000 6.4388964938 0.0557459366 0.0000000000 6.6388854366 0.0578486852 0.0000000000 6.8388743784 0.0599514344 0.0000000
[...]
      <PointData Scalars="radius">
        <DataArray type="Float32" Name="radius" format="ascii">
 0.1000000000 0.1000000000 0.1000000000 0.1000000000 0.1000000000 0.1000000000 0.1000000000 0.1000000000 0.1000000000 0.1000000000 0.1000000000 0.1000000000 0.1000000000 0.1000000000 0.1000000000 0.1000000000 0.1000000000 0.1000000000 0.1000000000 0.1000000000 0.1000000000 0.1000000000 0.1000000000 0.1000000000 0.1000000000 0.1000000000 0.1000000000 0.1000000000 0.1000000000 0.1000000000 0.1000000000 0.1000000000 0.1000000000 0.1000000000 0.1000000000 0.1000000000 0.1000000000 0.1000000000 0.1000000000 0.1000000000 0.1000000000 0.1000000000 0.1000000000 0.1000000000 0.1000000000 0.1000000000 0.1000000000 0.1000000000 0.1000000000 0.1000000000 0.1000000000 0.1000000000 0.1000000000 0.1000000000 0.1000000000 0.1000000000 0.1000000000 0.1000000000 0.1000000000 0.1000000000 0.1000000000 0.1000000000 0.1000000000 0.1000000000 0.1000000000 0.1000000000 0.1000000000 0.1000000000 0.1000000000 0.1000000000 0.1000000000 0.1000000000 0.1000000000 0.1000000000 0.1000000000 0.1000000000 0.1000000000 0.1000000000 0.1000000000 0.1000000000 0.1000000000 0.1000000000 0.1000000000 0.1000000000 0.1000000000 0.1000000000 0.1000000000 0.1000000000 0.1000000000 0.1000000000 0.1000000000 0.1000000000 0.1000000000 0.1000000000 0.1000000000 0.1000000000 0.1000000000 0.1000000000 0.1000000000 0.1000000000 0.1000000000 0.1000000000 0.1000000000 0.1000000000 0.1000000000 0.1000000000 0.1000000000 0.1000000000 0.1000000000 0.1000000000 0.1000000000 0.1000000000 0.1000000000 0.1000000000 0.1000000000 0.1000000000 0.1000000000 0.1000000000 0.1000000000 0.1000000000 0.1000000000 0.1000000000 0.1000000000 0.1000000000 0.1000000000 0.1000000000 0.1000000000 0.1000000000 0.1000000000 0.1000000000 0.1000000000 0.1000000000 0.1000000000 0.1000000000 0.1000000000 0.1000000000 0.1000000000 0.1000000000 0.1000000000 0.1000000000 0.1000000000 0.1000000000 0.1000000000 0.1000000000 0.1000000000 0.1000000000 0.1000000000 0.1000000000 0.1000000000 0.1000000000 0.1000000000 0.1000000000 0.1000000000 0.1000000000 0.1000000000 0.1000000000 0.1000000000 0.1000000000 0.1000000000 0.1000000000 0.1000000000 0.1000000000 0.1000000000 0.1000000000 0.1000000000 0.1000000000 0.1000000000 0.1000000000 0.1000000000 0.1000000000 0.1000000000 0.1000000000 0.1000000000 0.1000000000 0.1000000000 0.1000000000 0.1000000000 0.1000000000 0.1000000000 0.1000000000 0.1000000000 0.1000000000 0.1000000000 0.1000000000 0.1000000000 0.1000000000 0.1000000000 0.1000000000 0.1000000000 0.1000000000 0.1000000000 0.1000000000 0.1000000000 0.1000000000 0.1000000000 0.1000000000 0.1000000000 0.1000000000 0.1000000000 0.1000000000 0.1000000000 0.1000000000 0.1000000000 0.1000000000 0.1000000000 0.1000000000 0.1000000000 0.1000000000 0.1000000000 0.1000000000 0.1000000000 0.1000000000 0.1000000000 0.1000000000 0.1000000000 0.1000000000 0.1000000000 0.1000000000 0.1000000000 0.1000000000 0.1000000000 0.1000000000 0.1000000000 0.1000000000 0.1000000000 0.1000000000 0.1000000000 0.1000000000 0.1000000000 0.1000000000 0.1000000000 0.1000000000 0.1000000000 0.1000000000 0.1000000000 0.1000000000 0.1000000000 0.1000000000 0.1000000000 0.1000000000 0.1000000000 0.1000000000 0.1000000000 0.1000000000 0.1000000000 0.1000000000 0.1000000000 0.1000000000 0.1000000000 0.1000000000 0.1000000000 0.1000000000 0.1000000000 0.1000000000 0.1000000000 0.1000000000 0.1000000000 0.1000000000 0.1000000000 0.1000000000 0.1000000000 0.1000000000 0.1000000000 0.1000000000 0.1000000000 0.1000000000 0.1000000000 0.1000000000 0.1000000000 0.1000000000 0.1000000000 0.1000000000 0.1000000000 0.1000000000 0.1000000000 0.1000000000 0.1000000000 0.1000000000 0.1000000000 0.1000000000 0.1000000000 0.1000000000 0.1000000000 0.1000000000 0.1000000000 0.1000000000 0.1000000000 0.1000000000 0.1000000000 0.1000000000 0.1000000000 0.1000000000 0.1000000000 0.1000000000 0.1000000000 0.1000000000 0.1000000000 0.1000000000 0.1000000000 0.1000000000 0.1000000000 0.1000000000 0.1000000000 0.1000000000 0.1000000000 0.1000000000 0.1000000000 0.1000000000 0.1000000000 0.1000000000 0.1000000000 0.1000000000 0.1000000000 0.1000000000 0.1000000000 0.1000000000 0.1000000000 0.1000000000 0.1000000000 0.1000000000 0.1000000000 0.1000000000 0.1000000000 0.1000000000 0.1000000000 0.1000000000 0.1000000000 0.1000000000 0.1000000000 0.1000000000 0.1000000000 0.1000000000 0.1000000000 0.1000000000 0.1000000000 0.1000000000 0.1000000000 0.1000000000 0.1000000000 0.1000000000 0.1000000000 0.1000000000 0.1000000000 0.1000000000 0.1000000000 0.1000000000 0.1000000000 0.1000000000 0.1000000000 0.1000000000 0.1000000000 0.1000000000 0.1000000000 0.1000000000 0.1000000000 0.1000000000 0.1000000000 0.1000000000 0.1000000000 0.1000000000 0.1000000000 0.1000000000 0.1000000000 0.1000000000 0.1000000000 0.1000000000 0.1000000000 0.1000000000 0.1000000000 0.1000000000 0.1000000000 0.1000000000 0.1000000000 0.1000000000 0.1000000000 0.1000000000 0.1000000000 0.1000000000 0.1000000000 0.1000000000 0.1000000000 0.1000000000 0.1000000000 0.1000000000 0.1000000000 0.1000000000 0.1000000000 0.1000000000 0.1000000000 0.1000000000 0.1000000000 0.1000000000 0.1000000000 0.1000000000 0.1000000000 0.1000000000 0.1000000000 0.1000000000 0.1000000000 0.1000000000 0.1000000000 0.1000000000 0.1000000000 0.1000000000 0.1000000000 0.1000000000 0.1000000000 0.1000000000 0.1000000000 0.1000000000 0.1000000000 0.1000000000 0.1000000000 0.1000000000 0.1000000000 0.1000000000 0.1000000000 0.1000000000 0.1000000000 0.1000000000 0.1000000000 0.1000000000 0.1000000000 0.1000000000 0.1000000000 0.1000000000 0.1000000000 0.1000000000 0.1000000000 0.1000000000 0.1000000000 0.1000000000 0.1000000000 0.1000000000 0.1000000000 0.1000000000 0.1000000000 0.1000000000 0.1000000000 0.1000000000 0.1000000000 0.1000000000 0.1000000000 0.1000000000 0.1000000000 0.1000000000 0.1000000000 0.1000000000 0.1000000000 0.1000000000 0.1000000000 0.1000000000 0.1000000000 0.1000000000 0.1000000000 0.1000000000 0.1000000000 0.1000000000 0.1000000000 0.1000000000 0.1000000000 0.1000000000 0.1000000000 0.1000000000 0.1000000000 0.1000000000 0.1000000000 0.1000000000 0.1000000000 0.1000000000 0.1000000000 0.1000000000 0.1000000000 0.1000000000 0.1000000000 0.1000000000 0.1000000000 0.1000000000 0.1000000000 0.1000000000 0.1000000000 0.1000000000 0.1000000000 0.1000000000 0.1000000000 0.1000000000 0.1000000000 0.1000000000 0.1000000000 0.1000000000 0.1000000000 0.1000000000 0.1000000000 0.1000000000 0.1000000000 0.1000000000 0.1000000000 0.1000000000 0.1000000000 0.1000000000 0.1000000000 0.1000000000 0.1000000000 0.1000000000 0.1000000000 0.1000000000 0.1000000000 0.1000000000 0.1000000000 0.1000000000 0.1000000000 0.1000000000 0.1000000000 0.1000000000 0.1000000000 0.1000000000 0.1000000000 0.1000000000 0.1000000000 0.1000000000 0.1000000000 0.1000000000 0.1000000000 0.1000000000 0.1000000000 0.1000000000 0.1000000000 0.1000000000 0.1000000000 0.1000000000 0.1000000000 0.1000000000 0.1000000000 0.1000000000 0.1000000000 0.1000000000 0.1000000000 0.1000000000 0.1000000000 0.1000000000 0.1000000000 0.1000000000 0.1000000000 0.1000000000 0.1000000000 0.1000000000 0.1000000000 0.1000000000 0.1000000000 0.1000000000 0.1000000000 0.1000000000 0.1000000000 0.1000000000 0.1000000000 0.1000000000 0.1000000000 0.1000000000 0.1000000000 0.1000000000 0.1000000000 0.1000000000 0.1000000000 0.1000000000 0.1000000000 0.1000000000 0.1000000000 0.1000000000 0.1000000000 0.1000000000 0.1000000000 0.1000000000 0.1000000000 0.1000000000 0.1000000000 0.1000000000 0.1000000000 0.1000000000 0.1000000000 0.1000000000 0.1000000000 0.1000000000 0.1000000000 0.1000000000 0.1000000000 0.1000000000 0.1000000000 0.1000000000 0.1000000000 0.1000000000 0.1000000000 0.1000000000 0.1000000000 0.1000000000 0.1000000000 0.1000000000 0.1000000000 0.1000000000 0.1000000000 0.1000000000 0.1000000000 0.1000000000 0.1000000000 0.1000000000 0.1000000000 0.1000000000 0.1000000000 0.1000000000 0.1000000000 0.1000000000 0.1000000000 0.1000000000 0.1000000000 0.1000000000 0.1000000000 0.1000000000 0.1000000000 0.1000000000 0.1000000000 0.1000000000 0.1000000000 0.1000000000 0.1000000000 0.1000000000 0.1000000000 0.1000000000 0.1000000000 0.1000000000 0.1000000000 0.1000000000 0.1000000000 0.1000000000 0.1000000000 0.1000000000 0.1000000000 0.1000000000 0.1000000000 0.1000000000 0.1000000000 0.1000000000 0.1000000000 0.1000000000 0.1000000000 0.1000000000 0.1000000000 0.1000000000 0.1000000000 0.1000000000 0.1000000000 0.1000000000 0.1000000000 0.1000000000 0.1000000000 0.1000000000 0.1000000000 0.1000000000 0.1000000000 0.1000000000 0.1000000000 0.1000000000 0.1000000000 0.1000000000 0.1000000000 0.1000000000 0.1000000000 0.1000000000 0.1000000000 0.1000000000 0.1000000000 0.1000000000 0.1000000000 0.1000000000 0.1000000000 0.1000000000 0.1000000000 0.1000000000 0.1000000000 0.1000000000 0.1000000000 0.1000000000 0.1000000000 0.1000000000 0.1000000000 0.1000000000 0.1000000000 0.1000000000 0.1000000000 0.1000000000 0.1000000000 0.1000000000 0.1000000000 0.1000000000 0.1000000000 0.1000000000 0.1000000000 0.1000000000 0.1000000000 0.1000000000 0.1000000000 0.1000000000 0.1000000000 0.1000000000 0.1000000000 0.1000000000 0.1000000000 0.1000000000 0.1000000000 0.1000000000 0.1000000000 0.1000000000 0.1000000000 0.1000000000 0.1000000000 0.1000000000 0.1000000000 0.1000000000 0.1000000000 0.1000000000 0.1000000000 0.1000000000 0.1000000000 0.1000000000 0.1000000000 0.1000000000 0.1000000000 0.1000000000 0.1000000000 0.1000000000 0.1000000000 0.1000000000 0.1000000000 0.1000000000 0.1000000000 0.1000000000 0.1000000000 0.1000000000 0.1000000000 0.1000000000 0.1000000000 0.1000000000 0.1000000000 0.1000000000 0.1000000000 0.1000000000 0.1000000000 0.1000000000 0.1000000000 0.1000000000 0.1000000000 0.1000000000 0.1000000000 0.1000000000 0.1000000000 0.1000000000 0.1000000000 0.1000000000 0.1000000000 0.1000000000 0.1000000000 0.1000000000 0.1000000000 0.1000000000 0.1000000000 0.1000000000 0.1000000000 0.1000000000 0.1000000000 0.1000000000 0.1000000000 0.1000000000 0.1000000000 0.1000000000 0.1000000000 0.1000000000 0.1000000000 0.1000000000 0.1000000000 0.1000000000 0.1000000000 0.1000000000 0.1000000000 0.1000000000 0.1000000000 0.1000000000 0.1000000000 0.1000000000 0.1000000000 0.1000000000 0.1000000000 0.1000000000 0.1000000000 0.1000000000 0.1000000000 0.1000000000 0.1000000000 0.1000000000 0.1000000000 0.1000000000 0.1000000000 0.1000000000 0.1000000000 0.1000000000 0.1000000000 0.1000000000 0.1000000000 0.1000000000 0.1000000000 0.1000000000 0.1000000000 0.1000000000 0.1000000000 0.1000000000 0.1000000000 0.1000000000 0.1000000000 0.1000000000 0.1000000000 0.1000000000 0.1000000000 0.1000000000 0.1000000000 0.1000000000 0.1000000000 0.1000000000 0.1000000000 0.1000000000 0.1000000000 0.1000000000 0.1000000000 0.1000000000 0.1000000000 0.1000000000 0.1000000000 0.1000000000 0.1000000000 0.1000000000 0.1000000000 0.1000000000 0.1000000000 0.1000000000 0.1000000000 0.1000000000 0.1000000000 0.1000000000 0.1000000000 0.1000000000 0.1000000000 0.1000000000 0.1000000000 0.1000000000 0.1000000000 0.1000000000 0.1000000000 0.1000000000 0.1000000000 0.1000000000 0.1000000000 0.1000000000 0.1000000000 0.1000000000 0.1000000000 0.1000000000 0.1000000000 0.1000000000 0.1000000000 0.1000000000 0.1000000000 0.1000000000 0.1000000000 0.1000000000 0.1000000000 0.1000000000 0.1000000000 0.1000000000 0.1000000000 0.1000000000 0.1000000000 0.1000000000 0.1000000000 0.1000000000 0.1000000000 0.1000000000 0.1000000000 0.1000000000 0.1000000000 0.1000000000 0.1000000000 0.1000000000 0.1000000000 0.1000000000 0.1000000000 0.1000000000 0.1000000000 0.1000000000 0.1000000000 0.1000000000 0.1000000000 0.1000000000 0.1000000000 0.1000000000 0.1000000000 0.1000000000 0.1000000000 0.1000000000 0.1000000000 0.1000000000 0.1000000000 0.1000000000 0.1000000000 0.1000000000 0.1000000000 0.1000000000 0.1000000000 0.1000000000 0.1000000000 0.1000000000 0.1000000000 0.1000000000 0.1000000000 0.1000000000 0.1000000000 0.1000000000 0.1000000000 0.1000000000 0.1000000000 0.1000000000 0.1000000000 0.1000000000 0.1000000000 0.1000000000 0.1000000000 0.1000000000 0.1000000000 0.1000000000 0.1000000000 0.1000000000 0.1000000000 0.1000000000 0.1000000000 0.1000000000 0.1000000000 0.1000000000 0.1000000000 0.1000000000 0.1000000000 0.1000000000 0.1000000000 0.1000000000 0.1000000000 0.1000000000 0.1000000000 0.1000000000 0.1000000000 0.1000000000 0.1000000000 0.1000000000 0.1000000000 0.1000000000 0.1000000000 0.1000000000 0.1000000000 0.1000000000 0.1000000000 0.1000000000 0.1000000000 0.1000000000 0.1000000000 0.1000000000 0.1000000000 0.1000000000 0.1000000000 0.1000000000 0.1000000000 0.1000000000 0.1000000000 0.1000000000 0.1000000000 0.1000000000 0.1000000000 0.1000000000 0.1000000000 0.1000000000 0.1000000000 0.1000000000 0.1000000000 0.1000000000 0.1000000000 0.1000000000 0.1000000000 0.1000000000 0.1000000000 0.1000000000 0.1000000000 0.1000000000 0.1000000000 0.1000000000 0.1000000000 0.1000000000 0.1000000000 0.1000000000 0.1000000000 0.1000000000 0.1000000000 0.1000000000 0.1000000000 0.1000000000 0.1000000000 0.1000000000 0.1000000000 0.1000000000 0.1000000000 0.1000000000 0.1000000000 0.1000000000 0.1000000000 0.1000000000 0.1000000000 0.1000000000 0.1000000000 0.1000000000 0.1000000000 0.1000000000 0.1000000000 0.1000000000 0.1000000000 0.1000000000 0.1000000000 0.1000000000 0.1000000000 0.1000000000 0.1000000000 0.1000000000 0.1000000000 0.1000000000 0.1000000000 0.1000000000 0.1000000000 0.1000000000 0.1000000000 0.1000000000 0.1000000000 0.1000000000 0.1000000000 0.1000000000 0.1000000000 0.1000000000 0.1000000000 0.1000000000 0.1000000000 0.1000000000 0.1000000000 0.1000000000 0.1000000000 0.1000000000 0.1000000000 0.1000000000 0.1000000000 0.1000000000 0.1000000000 0.1000000000 0.1000000000 0.1000000000 0.1000000000 0.1000000000 0.1000000000 0.1000000000 0.1000000000 0.1000000000 0.1000000000 0.1000000000 0.1000000000 0.1000000000 0.1000000000 0.1000000000 0.1000000000 0.1000000000 0.1000000000 0.1000000000 0.1000000000 0.1000000000 0.1000000000 0.1000000000 0.1000000000 0.1000000000 0.1000000000 0.1000000000 0.1000000000 0.1000000000 0.1000000000 0.1000000000 0.1000000000 0.1000000000 0.1000000000 0.1000000000 0.1000000000 0.1000000000 0.1000000000 0.1000000000 0.1000000000 0.1000000000 0.1000000000 0.1000000000 0.1000000000 0.1000000000 0.1000000000 0.1000000000 0.1000000000 0.1000000000 0.1000000000 0.1000000000 0.1000000000 0.1000000000 0.1000000000 0.1000000000 0.1000000000 0.1000000000 0.1000000000 0.1000000000 0.1000000000 0.1000000000 0.1000000000 0.1000000000 0.1000000000 0.1000000000 0.1000000000 0.1000000000 0.1000000000 0.1000000000 0.1000000000 0.1000000000 0.1000000000 0.1000000000 0.1000000000 0.1000000000 0.1000000000 0.1000000000 0.1000000000 0.1000000000 0.1000000000 0.1000000000 0.1000000000 0.1000000000 0.1000000000 0.1000000000 0.1000000000 0.1000000000 0.1000000000 0.1000000000 0.1000000000 0.1000000000 0.1000000000 0.1000000000 0.1000000000 0.1000000000 0.1000000000 0.1000000000 0.1000000000 0.1000000000 0.1000000000 0.1000000000 0.1000000000 0.1000000000 0.1000000000 0.1000000000 0.1000000000 0.1000000000 0.1000000000 0.1000000000 0.1000000000 0.1000000000 0.1000000000 0.1000000000 0.1000000000 0.1000000000 0.1000000000 0.1000000000 0.1000000000 0.1000000000 0.1000000000 0.1000000000 0.1000000000 0.1000000000 0.1000000000 0.1000000000 0.1000000000 0.1000000000 0.1000000000 0.1000000000 0.1000000000 0.1000000000 0.1000000000 0.1000000000 0.1000000000 0.1000000000 0.1000000000 0.1000000000 0.1000000000 0.1000000000 0.1000000000 0.1000000000 0.1000000000 0.1000000000 0.1000000000 0.1000000000 0.1000000000 0.1000000000 0.1000000000 0.1000000000 0.1000000000 0.1000000000 0.1000000000 0.1000000000 0.1000000000 0.1000000000 0.1000000000 0.1000000000 0.1000000000 0.1000000000 0.1000000000 0.1000000000 0.1000000000 0.1000000000 0.1000000000 0.1000000000 0.1000000000 0.1000000000 0.1000000000 0.1000000000 0.1000000000 0.1000000000 0.1000000000 0.1000000000 0.1000000000 0.1000000000 0.1000000000 0.1000000000 0.1000000000 0.1000000000 0.1000000000 0.1000000000 0.1000000000 0.1000000000 0.1000000000 0.1000000000 0.1000000000 0.1000000000 0.1000000000 0.1000000000 0.1000000000 0.1000000000 0.1000000000 0.1000000000 0.1000000000 0.1000000000 0.1000000000 0.1000000000 0.1000000000 0.1000000000 0.1000000000 0.1000000000 0.1000000000 0.1000000000 0.1000000000 0.1000000000 0.1000000000 0.1000000000 0.1000000000 0.1000000000 0.1000000000 0.1000000000 0.1000000000 0.1000000000 0.1000000000 0.1000000000 0.1000000000 0.1000000000 0.1000000000 0.1000000000 0.1000000000 0.1000000000 0.1000000000 0.1000000000 0.1000000000 0.1000000000 0.1000000000 0.1000000000 0.1000000000 0.1000000000 0.1000000000 0.1000000000 0.1000000000 0.1000000000 0.1000000000 0.1000000000 0.1000000000 0.1000000000 0.1000000000 0.1000000000 0.1000000000 0.1000000000 0.1000000000 0.1000000000 0.1000000000 0.1000000000 0.1000000000 0.1000000000 0.1000000000 0.1000000000 0.1000000000 0.1000000000 0.1000000000 0.1000000000 0.1000000000 0.1000000000 0.1000000000 0.1000000000 0.1000000000 0.1000000000 0.1000000000 0.1000000000 0.1000000000 0.1000000000 0.1000000000 0.1000000000 0.1000000000 0.1000000000 0.1000000000 0.1000000000 0.1000000000 0.1000000000 0.1000000000 0.1000000000 0.1000000000 0.1000000000 0.1000000000 0.1000000000 0.1000000000 0.1000000000 0.1000000000 0.1000000000 0.1000000000 0.1000000000 0.1000000000 0.1000000000 0.1000000000 0.1000000000 0.1000000000 0.1000000000 0.1000000000 0.1000000000 0.1000000000 0.1000000000 0.1000000000 0.1000000000 0.1000000000 0.1000000000 0.1000000000 0.1000000000 0.1000000000 0.1000000000 0.1000000000 0.1000000000 0.1000000000 0.1000000000 0.1000000000 0.1000000000 0.1000000000 0.1000000000 0.1000000000 0.1000000000 0.1000000000 0.1000000000 0.1000000000 0.1000000000 0.1000000000 0.1000000000 0.1000000000 0.1000000000 0.1000000000 0.1000000000 0.1000000000 0.1000000000 0.1000000000 0.1000000000 0.1000000000 0.1000000000 0.1000000000 0.1000000000 0.1000000000 0.1000000000 0.1000000000 0.1000000000 0.1000000000 0.1000000000 0.1000000000 0.1000000000 0.1000000000 0.1000000000 0.1000000000 0.1000000000 0.1000000000 0.1000000000 0.1000000000 0.1000000000 0.1000000000 0.1000000000 0.1000000000 0.1000000000 0.1000000000 0.1000000000 0.1000000000 0.1000000000 0.1000000000 0.1000000000 0.1000000000 0.1000000000 0.1000000000 0.1000000000 0.1000000000 0.1000000000 0.1000000000 0.1000000000 0.1000000000 0.1000000000 0.1000000000 0.1000000000 0.1000000000 0.1000000000 0.1000000000 0.1000000000 0.1000000000 0.1000000000 0.1000000000 0.1000000000 0.1000000000 0.1000000000 0.1000000000 0.1000000000 0.1000000000 0.1000000000 0.1000000000 0.1000000000 0.1000000000 0.1000000000 0.1000000000 0.1000000000 0.1000000000 0.1000000000 0.1000000000 0.1000000000 0.1000000000 0.1000000000 0.1000000000 0.1000000000 0.1000000000 0.1000000000 0.1000000000 0.1000000000 0.1000000000 0.1000000000 0.1000000000 0.1000000000 0.1000000000 0.1000000000 0.1000000000 0.1000000000 0.1000000000 0.1000000000 0.1000000000 0.1000000000 0.1000000000 0.1000000000 0.1000000000 0.1000000000 0.1000000000 0.1000000000 0.1000000000 0.1000000000 0.1000000000 0.1000000000 0.1000000000 0.1000000000 0.1000000000 0.1000000000 0.1000000000 0.1000000000 0.1000000000 0.1000000000 0.1000000000 0.1000000000 0.1000000000 0.1000000000 0.1000000000 0.1000000000 0.1000000000 0.1000000000 0.1000000000 0.1000000000 0.1000000000 0.1000000000 0.1000000000 0.1000000000 0.1000000000 0.1000000000 0.1000000000 0.1000000000 0.1000000000 0.1000000000 0.1000000000 0.1000000000 0.1000000000 0.1000000000 0.1000000000 0.1000000000 0.1000000000 0.1000000000 0.1000000000 0.1000000000 0.1000000000 0.1000000000 0.1000000000 0.1000000000 0.1000000000 0.1000000000 0.1000000000 0.1000000000 0.1000000000 0.1000000000 0.1000000000 0.1000000000 0.10000000