<?xml version="1.0"?>
<VTKFile type="UnstructuredGrid" version="0.1" byte_order="LittleEndian">
  <UnstructuredGrid>
    <FieldData>
      <DataArray type="Float32" Name="TIME"  NumberOfTuples="1" format="ascii"> 2.0000000000 </DataArray>
      <DataArray type="Int32"   Name="STEP"  NumberOfTuples="1" format="ascii"> 500000 </DataArray>
    </FieldData>
    <Piece NumberOfPoints="11600" NumberOfCells="11600">
      <Points>
        <DataArray type="Float32" NumberOfComponents="3" format="ascii">
 -0.3363172882 -0.6771793777 0.0000024010 -0.1363506167 -0.6735283708 0.0000022751 0.0636160574 -0.6698773640 0.0000021504 0.2635827291 -0.6662263569 0.0000020332 0.4635494034 -0.6625753494 0.0000019199 0.6635160759 -0.6589243423 0.0000018131 0.8634827484 -0.6552733349 0.0000017147 1.0634494217 -0.6516223278 0.0000016253 1.2634160936 -0.6479713204 0.0000015623 1.4633827669 -0.6443203129 0.0000015056 1.6633494392 -0.6406693055 0.0000014596 1.8633161116 -0.6370182983 0.0000014238 2.0632827846 -0.6333672911 0.0000013968 2.2632494563 -0.6297162838 0.0000013917 2.4632161294 -0.6260652762 0.0000013852 2.6631828017 -0.6224142690 0.0000013827 2.8631494738 -0.6187632617 0.0000013836 3.0631161466 -0.6151122547 0.0000013873 3.2630828181 -0.6114612474 0.0000014018 3.4630494908 -0.6078102401 0.0000014161 3.6630161628 -0.6041592331 0.0000014351 3.8629828349 -0.6005082260 0.0000014598 4.0629495075 -0.5968572192 0.0000014907 4.2629161789 -0.5932062122 0.0000015384 4.4628828512 -0.5895552052 0.0000015856 4.6628495233 -0.5859041985 0.0000016350 4.8628161952 -0.5822531917 0.0000016838 5.0627828677 -0.5786021852 0.0000017294 5.2627495389 -0.5749511786 0.0000017699 5.4627162113 -0.5713001719 0.0000017917 5.6626828833 -0.5676491655 0.0000018026 5.8626495551 -0.5639981591 0.0000018015 6.0626162275 -0.5603471530 0.0000017890 6.2625828986 -0.5566961467 0.0000017581 6.4625495710 -0.5530451405 0.0000017171 6.6625162428 -0.5493941345 0.0000016697 6.8624829146 -0.5457431286 0.0000016173 7.0624495870 -0.5420921230 0.0000015620 7.2624162582 -0.5384411172 0.0000014994 7.4623829306 -0.5347901113 0.0000014466 7.6623496025 -0.5311391057 0.0000013973 7.8623162744 -0.5274881002 0.0000013525 8.0622829468 -0.5238370948 0.0000013120 8.2622496181 -0.5201860895 0.0000012721 8.4622162905 -0.5165350838 0.0000012398 8.6621829625 -0.5128840787 0.0000012066 8.8621496346 -0.5092330734 0.0000011704 9.0621163072 -0.5055820683 0.0000011297 9.2620829786 -0.5019310632 0.0000010774 9.4620496512 -0.4982800579 0.0000010209 9.6620163233 -0.4946290528 0.0000009612 9.8619829955 -0.4909780478 0.0000009006 10.0619496681 -0.4873270428 0.0000008415 10.2619163399 -0.4836760380 0.0000007881 10.4618830125 -0.4800250328 0.0000007445 10.6618496848 -0.4763740280 0.0000007080 10.8618163569 -0.4727230230 0.0000006789 11.0617830300 -0.4690720183 0.0000006565 11.2617497017 -0.4654210135 0.0000006468 11.4617163748 -0.4617700086 0.0000006384 11.6616830471 -0.4581190038 0.0000006320 11.8616497194 -0.4544679991 0.0000006260 12.0616163929 -0.4508169946 0.0000006188 12.2615830647 -0.4471659896 0.0000006145 12.4615497385 -0.4435149847 0.0000005974 12.6615164105 -0.4398639802 0.0000005806 12.8614830837 -0.4362129747 0.0000005505 13.0614497574 -0.4325619703 0.0000005170 13.2614164294 -0.4289109656 0.0000004832 13.4613831051 -0.4252599607 0.0000004445 13.6613497772 -0.4216089538 0.0000004060 13.8918781279 -0.4103225036 -0.0000000000 14.0918769230 -0.4110165515 -0.0000000000 14.2918757180 -0.4117105991 -0.0000000000 14.4918745157 -0.4124046462 -0.0000000000 14.6918733109 -0.4130986942 -0.0000000000 14.8918721071 -0.4137927413 -0.0000000000 15.0918709034 -0.4144867893 -0.0000000000 15.2918696987 -0.4151808367 -0.0000000000 15.4918684958 -0.4158748843 -0.0000000000 15.6918672912 -0.4165689320 -0.0000000000 15.8918660878 -0.4172629796 -0.0000000000 16.0918648840 -0.4179570268 -0.0000000000 16.3568950201 -0.3093969755 -0.0000000308 16.5568459731 -0.3049679242 -0.0000000301 16.7567969248 -0.3005388737 -0.0000000294 16.9567478788 -0.2961098230 -0.0000000286 17.1566988314 -0.2916807726 -0.0000000279 17.3566497840 -0.2872517221 -0.0000000271 17.5566007380 -0.2828226718 -0.0000000263 17.7565516904 -0.2783936215 -0.0000000255 17.9565026443 -0.2739645709 -0.0000000248 18.1564535973 -0.2695355204 -0.0000000240 18.3564045500 -0.2651064699 -0.0000000232 18.5563555044 -0.2606774195 -0.0000000224 18.7563064566 -0.2562483691 -0.0000000215 18.9562574110 -0.2518193181 -0.0000000207 19.1562083639 -0.2473902673 -0.0000000200 19.3561593166 -0.2429612164 -0.0000000192 19.5561102687 -0.2385321653 -0.0000000184 -0.2394958167 -0.5021776571 0.0000023539 -0.0395291451 -0.4985266506 0.0000022274 0.1604375283 -0.4948756433 0.0000021033 0.3604042019 -0.4912246362 0.0000019845 0.5603708744 -0.4875736289 0.0000018706 0.7603375470 -0.4839226214 0.0000017633 0.9603042195 -0.4802716140 0.0000016642 1.1602708925 -0.4766206066 0.0000015774 1.3602375657 -0.4729695994 0.0000015070 1.5602042380 -0.4693185920 0.0000014472 1.7601709104 -0.4656675846 0.0000013976 1.9601375828 -0.4620165771 0.0000013581 2.1601042555 -0.4583655697 0.0000013297 2.3600709282 -0.4547145625 0.0000013130 2.5600376005 -0.4510635552 0.0000013014 2.7600042727 -0.4474125477 0.0000012939 2.9599709449 -0.4437615404 0.0000012900 3.1599376173 -0.4401105331 0.0000012908 3.3599042898 -0.4364595261 0.0000012975 3.5598709619 -0.4328085189 0.0000013082 3.7598376341 -0.4291575118 0.0000013240 3.9598043062 -0.4255065047 0.0000013460 4.1597709784 -0.4218554978 0.0000013761 4.3597376506 -0.4182044910 0.0000014149 4.5597043227 -0.4145534842 0.0000014572 4.7596709947 -0.4109024774 0.0000015005 4.9596376667 -0.4072514706 0.0000015426 5.1596043388 -0.4036004640 0.0000015803 5.3595710111 -0.3999494574 0.0000016069 5.5595376830 -0.3962984511 0.0000016226 5.7595043549 -0.3926474446 0.0000016275 5.9594710269 -0.3889964383 0.0000016214 6.1594376990 -0.3853454320 0.0000016034 6.3594043710 -0.3816944258 0.0000015714 6.5593710429 -0.3780434198 0.0000015314 6.7593377149 -0.3743924139 0.0000014859 6.9593043868 -0.3707414079 0.0000014370 7.1592710589 -0.3670904021 0.0000013859 7.3592377310 -0.3634393963 0.0000013366 7.5592044029 -0.3597883907 0.0000012915 7.7591710749 -0.3561373852 0.0000012508 7.9591377468 -0.3524863796 0.0000012144 8.1591044190 -0.3488353741 0.0000011817 8.3590710911 -0.3451843687 0.0000011526 8.5590377631 -0.3415333635 0.0000011242 8.7590044353 -0.3378823582 0.0000010934 8.9589711072 -0.3342313530 0.0000010578 9.1589377796 -0.3305803479 0.0000010151 9.3589044519 -0.3269293426 0.0000009632 9.5588711240 -0.3232783376 0.0000009064 9.7588377963 -0.3196273326 0.0000008471 9.9588044685 -0.3159763276 0.0000007878 10.1587711409 -0.3123253226 0.0000007316 10.3587378133 -0.3086743174 0.0000006832 10.5587044856 -0.3050233126 0.0000006418 10.7586711580 -0.3013723079 0.0000006072 10.9586378303 -0.2977213030 0.0000005793 11.1586045029 -0.2940702982 0.0000005582 11.3585711755 -0.2904192934 0.0000005435 11.5585378480 -0.2867682886 0.0000005311 11.7585045206 -0.2831172841 0.0000005194 11.9584711929 -0.2794662793 0.0000005073 12.1584378659 -0.2758152744 0.0000004937 12.3584045388 -0.2721642701 0.0000004750 12.5583712116 -0.2685132650 0.0000004516 12.7583378847 -0.2648622605 0.0000004214 12.9583045571 -0.2612112560 0.0000003864 13.1582712309 -0.2575602507 0.0000003492 13.3582379042 -0.2539092470 0.0000003102 13.5582045773 -0.2502582412 0.0000002707 13.7924797905 -0.2367714451 -0.0000000000 13.9924785876 -0.2374654910 -0.0000000000 14.1924773836 -0.2381595384 -0.0000000000 14.3924761797 -0.2388535863 -0.0000000000 14.5924749758 -0.2395476338 -0.0000000000 14.7924737719 -0.2402416815 0.0000000000 14.9924725677 -0.2409357292 0.0000000000 15.1924713637 -0.2416297766 0.0000000000 15.3924701601 -0.2423238247 0.0000000000 15.5924689561 -0.2430178718 0.0000000000 15.7924677524 -0.2437119192 0.0000000000 15.9924665458 -0.2444059690 0.0000000000 16.2530838738 -0.1384488979 -0.0000000297 16.4530348251 -0.1340198466 -0.0000000291 16.6529857783 -0.1295907953 -0.0000000284 16.8529367317 -0.1251617448 -0.0000000276 17.0528876846 -0.1207326942 -0.0000000269 17.2528386376 -0.1163036438 -0.0000000262 17.4527895905 -0.1118745936 -0.0000000254 17.6527405440 -0.1074455429 -0.0000000246 17.8526914975 -0.1030164925 -0.0000000239 18.0526424505 -0.0985874421 -0.0000000231 18.2525934035 -0.0941583917 -0.0000000223 18.4525443567 -0.0897293416 -0.0000000215 18.6524953104 -0.0853002906 -0.0000000207 18.8524462640 -0.0808712402 -0.0000000200 19.0523972169 -0.0764421894 -0.0000000192 19.2523481698 -0.0720131386 -0.0000000184 19.4522991225 -0.0675840877 -0.0000000176 19.6522500742 -0.0631550368 -0.0000000169 -0.3426410181 -0.3308269426 0.0000024339 -0.1426743459 -0.3271759357 0.0000023056 0.0572923278 -0.3235249287 0.0000021782 0.2572589994 -0.3198739215 0.0000020539 0.4572256731 -0.3162229143 0.0000019340 0.6571923456 -0.3125719069 0.0000018188 0.8571590183 -0.3089208995 0.0000017100 1.0571256916 -0.3052698922 0.0000016091 1.2570923635 -0.3016188845 0.0000015214 1.4570590366 -0.2979678774 0.0000014469 1.6570257092 -0.2943168700 0.0000013826 1.8569923816 -0.2906658626 0.0000013286 2.0569590545 -0.2870148553 0.0000012844 2.2569257262 -0.2833638476 0.0000012522 2.4568923991 -0.2797128406 0.0000012294 2.6568590715 -0.2760618332 0.0000012122 2.8568257439 -0.2724108259 0.0000011996 3.0567924164 -0.2687598186 0.0000011910 3.2567590882 -0.2651088112 0.0000011878 3.4567257608 -0.2614578042 0.0000011899 3.6566924331 -0.2578067971 0.0000011967 3.8566591054 -0.2541557900 0.0000012090 4.0566257778 -0.2505047830 0.0000012275 4.2565924495 -0.2468537759 0.0000012541 4.4565591219 -0.2432027692 0.0000012874 4.6565257941 -0.2395517624 0.0000013234 4.8564924663 -0.2359007557 0.0000013600 5.0564591387 -0.2322497489 0.0000013945 5.2564258102 -0.2285987424 0.0000014225 5.4563924826 -0.2249477358 0.0000014408 5.6563591547 -0.2212967294 0.0000014503 5.8563258268 -0.2176457230 0.0000014502 6.0562924991 -0.2139947166 0.0000014403 6.2562591706 -0.21034371
[...]
      <PointData Scalars="radius">
        <DataArray type="Float32" Name="radius" format="ascii">
 0.1000000000 0.1000000000 0.1000000000 0.1000000000 0.1000000000 0.1000000000 0.1000000000 0.1000000000 0.1000000000 0.1000000000 0.1000000000 0.1000000000 0.1000000000 0.1000000000 0.1000000000 0.1000000000 0.1000000000 0.1000000000 0.1000000000 0.1000000000 0.1000000000 0.1000000000 0.1000000000 0.1000000000 0.1000000000 0.1000000000 0.1000000000 0.1000000000 0.1000000000 0.1000000000 0.1000000000 0.1000000000 0.1000000000 0.1000000000 0.1000000000 0.1000000000 0.1000000000 0.1000000000 0.1000000000 0.1000000000 0.1000000000 0.1000000000 0.1000000000 0.1000000000 0.1000000000 0.1000000000 0.1000000000 0.1000000000 0.1000000000 0.1000000000 0.1000000000 0.1000000000 0.1000000000 0.1000000000 0.1000000000 0.1000000000 0.1000000000 0.1000000000 0.1000000000 0.1000000000 0.1000000000 0.1000000000 0.1000000000 0.1000000000 0.1000000000 0.1000000000 0.1000000000 0.1000000000 0.1000000000 0.1000000000 0.1000000000 0.1000000000 0.1000000000 0.1000000000 0.1000000000 0.1000000000 0.1000000000 0.1000000000 0.1000000000 0.1000000000 0.1000000000 0.1000000000 0.1000000000 0.1000000000 0.1000000000 0.1000000000 0.1000000000 0.1000000000 0.1000000000 0.1000000000 0.1000000000 0.1000000000 0.1000000000 0.1000000000 0.1000000000 0.1000000000 0.1000000000 0.1000000000 0.1000000000 0.1000000000 0.1000000000 0.1000000000 0.1000000000 0.1000000000 0.1000000000 0.1000000000 0.1000000000 0.1000000000 0.1000000000 0.1000000000 0.1000000000 0.1000000000 0.1000000000 0.1000000000 0.1000000000 0.1000000000 0.1000000000 0.1000000000 0.1000000000 0.1000000000 0.1000000000 0.1000000000 0.1000000000 0.1000000000 0.1000000000 0.1000000000 0.1000000000 0.1000000000 0.1000000000 0.1000000000 0.1000000000 0.1000000000 0.1000000000 0.1000000000 0.1000000000 0.1000000000 0.1000000000 0.1000000000 0.1000000000 0.1000000000 0.1000000000 0.1000000000 0.1000000000 0.1000000000 0.1000000000 0.1000000000 0.1000000000 0.1000000000 0.1000000000 0.1000000000 0.1000000000 0.1000000000 0.1000000000 0.1000000000 0.1000000000 0.1000000000 0.1000000000 0.1000000000 0.1000000000 0.1000000000 0.1000000000 0.1000000000 0.1000000000 0.1000000000 0.1000000000 0.1000000000 0.1000000000 0.1000000000 0.1000000000 0.1000000000 0.1000000000 0.1000000000 0.1000000000 0.1000000000 0.1000000000 0.1000000000 0.1000000000 0.1000000000 0.1000000000 0.1000000000 0.1000000000 0.1000000000 0.1000000000 0.1000000000 0.1000000000 0.1000000000 0.1000000000 0.1000000000 0.1000000000 0.1000000000 0.1000000000 0.1000000000 0.1000000000 0.1000000000 0.1000000000 0.1000000000 0.1000000000 0.1000000000 0.1000000000 0.1000000000 0.1000000000 0.1000000000 0.1000000000 0.1000000000 0.1000000000 0.1000000000 0.1000000000 0.1000000000 0.1000000000 0.1000000000 0.1000000000 0.1000000000 0.1000000000 0.1000000000 0.1000000000 0.1000000000 0.1000000000 0.1000000000 0.1000000000 0.1000000000 0.1000000000 0.1000000000 0.1000000000 0.1000000000 0.1000000000 0.1000000000 0.1000000000 0.1000000000 0.1000000000 0.1000000000 0.1000000000 0.1000000000 0.1000000000 0.1000000000 0.1000000000 0.1000000000 0.1000000000 0.1000000000 0.1000000000 0.1000000000 0.1000000000 0.1000000000 0.1000000000 0.1000000000 0.1000000000 0.1000000000 0.1000000000 0.1000000000 0.1000000000 0.1000000000 0.1000000000 0.1000000000 0.1000000000 0.1000000000 0.1000000000 0.1000000000 0.1000000000 0.1000000000 0.1000000000 0.1000000000 0.1000000000 0.1000000000 0.1000000000 0.1000000000 0.1000000000 0.1000000000 0.1000000000 0.1000000000 0.1000000000 0.1000000000 0.1000000000 0.1000000000 0.1000000000 0.1000000000 0.1000000000 0.1000000000 0.1000000000 0.1000000000 0.1000000000 0.1000000000 0.1000000000 0.1000000000 0.1000000000 0.1000000000 0.1000000000 0.1000000000 0.1000000000 0.1000000000 0.1000000000 0.1000000000 0.1000000000 0.1000000000 0.1000000000 0.1000000000 0.1000000000 0.1000000000 0.1000000000 0.1000000000 0.1000000000 0.1000000000 0.1000000000 0.1000000000 0.1000000000 0.1000000000 0.1000000000 0.1000000000 0.1000000000 0.1000000000 0.1000000000 0.1000000000 0.1000000000 0.1000000000 0.1000000000 0.1000000000 0.1000000000 0.1000000000 0.1000000000 0.1000000000 0.1000000000 0.1000000000 0.1000000000 0.1000000000 0.1000000000 0.1000000000 0.1000000000 0.1000000000 0.1000000000 0.1000000000 0.1000000000 0.1000000000 0.1000000000 0.1000000000 0.1000000000 0.1000000000 0.1000000000 0.1000000000 0.1000000000 0.1000000000 0.1000000000 0.1000000000 0.1000000000 0.1000000000 0.1000000000 0.1000000000 0.1000000000 0.1000000000 0.1000000000 0.1000000000 0.1000000000 0.1000000000 0.1000000000 0.1000000000 0.1000000000 0.1000000000 0.1000000000 0.1000000000 0.1000000000 0.1000000000 0.1000000000 0.1000000000 0.1000000000 0.1000000000 0.1000000000 0.1000000000 0.1000000000 0.1000000000 0.1000000000 0.1000000000 0.1000000000 0.1000000000 0.1000000000 0.1000000000 0.1000000000 0.1000000000 0.1000000000 0.1000000000 0.1000000000 0.1000000000 0.1000000000 0.1000000000 0.1000000000 0.1000000000 0.1000000000 0.1000000000 0.1000000000 0.1000000000 0.1000000000 0.1000000000 0.1000000000 0.1000000000 0.1000000000 0.1000000000 0.1000000000 0.1000000000 0.1000000000 0.1000000000 0.1000000000 0.1000000000 0.1000000000 0.1000000000 0.1000000000 0.1000000000 0.1000000000 0.1000000000 0.1000000000 0.1000000000 0.1000000000 0.1000000000 0.1000000000 0.1000000000 0.1000000000 0.1000000000 0.1000000000 0.1000000000 0.1000000000 0.1000000000 0.1000000000 0.1000000000 0.1000000000 0.1000000000 0.1000000000 0.1000000000 0.1000000000 0.1000000000 0.1000000000 0.1000000000 0.1000000000 0.1000000000 0.1000000000 0.1000000000 0.1000000000 0.1000000000 0.1000000000 0.1000000000 0.1000000000 0.1000000000 0.1000000000 0.1000000000 0.1000000000 0.1000000000 0.1000000000 0.1000000000 0.1000000000 0.1000000000 0.1000000000 0.1000000000 0.1000000000 0.1000000000 0.1000000000 0.1000000000 0.1000000000 0.1000000000 0.1000000000 0.1000000000 0.1000000000 0.1000000000 0.1000000000 0.1000000000 0.1000000000 0.1000000000 0.1000000000 0.1000000000 0.1000000000 0.1000000000 0.1000000000 0.1000000000 0.1000000000 0.1000000000 0.1000000000 0.1000000000 0.1000000000 0.1000000000 0.1000000000 0.1000000000 0.1000000000 0.1000000000 0.1000000000 0.1000000000 0.1000000000 0.1000000000 0.1000000000 0.1000000000 0.1000000000 0.1000000000 0.1000000000 0.1000000000 0.1000000000 0.1000000000 0.1000000000 0.1000000000 0.1000000000 0.1000000000 0.1000000000 0.1000000000 0.1000000000 0.1000000000 0.1000000000 0.1000000000 0.1000000000 0.1000000000 0.1000000000 0.1000000000 0.1000000000 0.1000000000 0.1000000000 0.1000000000 0.1000000000 0.1000000000 0.1000000000 0.1000000000 0.1000000000 0.1000000000 0.1000000000 0.1000000000 0.1000000000 0.1000000000 0.1000000000 0.1000000000 0.1000000000 0.1000000000 0.1000000000 0.1000000000 0.1000000000 0.1000000000 0.1000000000 0.1000000000 0.1000000000 0.1000000000 0.1000000000 0.1000000000 0.1000000000 0.1000000000 0.1000000000 0.1000000000 0.1000000000 0.1000000000 0.1000000000 0.1000000000 0.1000000000 0.1000000000 0.1000000000 0.1000000000 0.1000000000 0.1000000000 0.1000000000 0.1000000000 0.1000000000 0.1000000000 0.1000000000 0.1000000000 0.1000000000 0.1000000000 0.1000000000 0.1000000000 0.1000000000 0.1000000000 0.1000000000 0.1000000000 0.1000000000 0.1000000000 0.1000000000 0.1000000000 0.1000000000 0.1000000000 0.1000000000 0.1000000000 0.1000000000 0.1000000000 0.1000000000 0.1000000000 0.1000000000 0.1000000000 0.1000000000 0.1000000000 0.1000000000 0.1000000000 0.1000000000 0.1000000000 0.1000000000 0.1000000000 0.1000000000 0.1000000000 0.1000000000 0.1000000000 0.1000000000 0.1000000000 0.1000000000 0.1000000000 0.1000000000 0.1000000000 0.1000000000 0.1000000000 0.1000000000 0.1000000000 0.1000000000 0.1000000000 0.1000000000 0.1000000000 0.1000000000 0.1000000000 0.1000000000 0.1000000000 0.1000000000 0.1000000000 0.1000000000 0.1000000000 0.1000000000 0.1000000000 0.1000000000 0.1000000000 0.1000000000 0.1000000000 0.1000000000 0.1000000000 0.1000000000 0.1000000000 0.1000000000 0.1000000000 0.1000000000 0.1000000000 0.1000000000 0.1000000000 0.1000000000 0.1000000000 0.1000000000 0.1000000000 0.1000000000 0.1000000000 0.1000000000 0.1000000000 0.1000000000 0.1000000000 0.1000000000 0.1000000000 0.1000000000 0.1000000000 0.1000000000 0.1000000000 0.1000000000 0.1000000000 0.1000000000 0.1000000000 0.1000000000 0.1000000000 0.1000000000 0.1000000000 0.1000000000 0.1000000000 0.1000000000 0.1000000000 0.1000000000 0.1000000000 0.1000000000 0.1000000000 0.1000000000 0.1000000000 0.1000000000 0.1000000000 0.1000000000 0.1000000000 0.1000000000 0.1000000000 0.1000000000 0.1000000000 0.1000000000 0.1000000000 0.1000000000 0.1000000000 0.1000000000 0.1000000000 0.1000000000 0.1000000000 0.1000000000 0.1000000000 0.1000000000 0.1000000000 0.1000000000 0.1000000000 0.1000000000 0.1000000000 0.1000000000 0.1000000000 0.1000000000 0.1000000000 0.1000000000 0.1000000000 0.1000000000 0.1000000000 0.1000000000 0.1000000000 0.1000000000 0.1000000000 0.1000000000 0.1000000000 0.1000000000 0.1000000000 0.1000000000 0.1000000000 0.1000000000 0.1000000000 0.1000000000 0.1000000000 0.1000000000 0.1000000000 0.1000000000 0.1000000000 0.1000000000 0.1000000000 0.1000000000 0.1000000000 0.1000000000 0.1000000000 0.1000000000 0.1000000000 0.1000000000 0.1000000000 0.1000000000 0.1000000000 0.1000000000 0.1000000000 0.1000000000 0.1000000000 0.1000000000 0.1000000000 0.1000000000 0.1000000000 0.1000000000 0.1000000000 0.1000000000 0.1000000000 0.1000000000 0.1000000000 0.1000000000 0.1000000000 0.1000000000 0.1000000000 0.1000000000 0.1000000000 0.1000000000 0.1000000000 0.1000000000 0.1000000000 0.1000000000 0.1000000000 0.1000000000 0.1000000000 0.1000000000 0.1000000000 0.1000000000 0.1000000000 0.1000000000 0.1000000000 0.1000000000 0.1000000000 0.1000000000 0.1000000000 0.1000000000 0.1000000000 0.1000000000 0.1000000000 0.1000000000 0.1000000000 0.1000000000 0.1000000000 0.1000000000 0.1000000000 0.1000000000 0.1000000000 0.1000000000 0.1000000000 0.1000000000 0.1000000000 0.1000000000 0.1000000000 0.1000000000 0.1000000000 0.1000000000 0.1000000000 0.1000000000 0.1000000000 0.1000000000 0.1000000000 0.1000000000 0.1000000000 0.1000000000 0.1000000000 0.1000000000 0.1000000000 0.1000000000 0.1000000000 0.1000000000 0.1000000000 0.1000000000 0.1000000000 0.1000000000 0.1000000000 0.1000000000 0.1000000000 0.1000000000 0.1000000000 0.1000000000 0.1000000000 0.1000000000 0.1000000000 0.1000000000 0.1000000000 0.1000000000 0.1000000000 0.1000000000 0.1000000000 0.1000000000 0.1000000000 0.1000000000 0.1000000000 0.1000000000 0.1000000000 0.1000000000 0.1000000000 0.1000000000 0.1000000000 0.1000000000 0.1000000000 0.1000000000 0.1000000000 0.1000000000 0.1000000000 0.1000000000 0.1000000000 0.1000000000 0.1000000000 0.1000000000 0.1000000000 0.1000000000 0.1000000000 0.1000000000 0.1000000000 0.1000000000 0.1000000000 0.1000000000 0.1000000000 0.1000000000 0.1000000000 0.1000000000 0.1000000000 0.1000000000 0.1000000000 0.1000000000 0.1000000000 0.1000000000 0.1000000000 0.1000000000 0.1000000000 0.1000000000 0.1000000000 0.1000000000 0.1000000000 0.1000000000 0.1000000000 0.1000000000 0.1000000000 0.1000000000 0.1000000000 0.1000000000 0.1000000000 0.1000000000 0.1000000000 0.1000000000 0.1000000000 0.1000000000 0.1000000000 0.1000000000 0.1000000000 0.1000000000 0.1000000000 0.1000000000 0.1000000000 0.1000000000 0.1000000000 0.1000000000 0.1000000000 0.1000000000 0.1000000000 0.1000000000 0.1000000000 0.1000000000 0.1000000000 0.1000000000 0.1000000000 0.1000000000 0.1000000000 0.1000000000 0.1000000000 0.1000000000 0.1000000000 0.1000000000 0.1000000000 0.1000000000 0.1000000000 0.1000000000 0.1000000000 0.1000000000 0.1000000000 0.1000000000 0.1000000000 0.1000000000 0.1000000000 0.1000000000 0.1000000000 0.1000000000 0.1000000000 0.1000000000 0.1000000000 0.1000000000 0.1000000000 0.1000000000 0.1000000000 0.1000000000 0.1000000000 0.1000000000 0.1000000000 0.1000000000 0.1000000000 0.1000000000 0.1000000000 0.1000000000 0.1000000000 0.1000000000 0.1000000000 0.1000000000 0.1000000000 0.1000000000 0.1000000000 0.1000000000 0.1000000000 0.1000000000 0.1000000000 0.1000000000 0.1000000000 0.1000000000 0.1000000000 0.1000000000 0.1000000000 0.1000000000 0.1000000000 0.1000000000 0.1000000000 0.1000000000 0.1000000000 0.1000000000 0.1000000000 0.1000000000 0.1000000000 0.1000000000 0.1000000000 0.1000000000 0.1000000000 0.1000000000 0.1000000000 0.1000000000 0.1000000000 0.1000000000 0.1000000000 0.1000000000 0.1000000000 0.1000000000 0.1000000000 0.1000000000 0.1000000000 0.1000000000 0.1000000000 0.1000000000 0.1000000000 0.1000000000 0.1000000000 0.1000000000 0.1000000000 0.1000000000 0.1000000000 0.1000000000 0.1000000000 0.1000000000 0.1000000000 0.1000000000 0.1000000000 0.1000000000 0.1000000000 0.1000000000 0.1000000000 0.1000000000 0.1000000000 0.1000000000 0.1000000000 0.1000000000 0.1000000000 0.1000000000 0.1000000000 0.1000000000 0.1000000000 0.1000000000 0.1000000000 0.1000000000 0.1000000000 0.1000000000 0.1000000000 0.1000000000 0.1000000000 0.1000000000 0.1000000000 0.1000000000 0.1000000000 0.1000000000 0.1000000000 0.1000000000 0.1000000000 0.1000000000 0.1000000000 0.1000000000 0.1000000000 0.1000000000 0.1000000000 0.1000000000 0.1000000000 0.1000000000 0.1000000000 0.1000000000 0.1000000000 0.1000000000 0.1000000000 0.1000000000 0.1000000000 0.1000000000 0.1000000000 0.1000000000 0.1000000000 0.1000000000 0.1000000000 0.1000000000 0.1000000000 0.1000000000 0.1000000000 0.1000000000 0.1000000000 0.1000000000 0.1000000000 0.1000000000 0.1000000000 0.1000000000 0.1000000000 0.1000000000 0.1000000000 0.1000000000 0.1000000000 0.1000000000 0.1000000000 0.1000000000 0.1000000000 0.1000000000 0.1000000000 0.1000000000 0.1000000000 0.1000000000 0.1000000000 0.1000000000 0.1000000000 0.1000000000 0.1000000000 0.1000000000 0.1000000000 0.1000000000 0.1000000000 0.1000000000 0.1000000000 0.1000000000 0.1000000000 0.1000000000 0.1000000000 0.1000000000 0.1000000000 0.1000000000 0.1000000000 0.1000000000 0.1000000000 0.1000000000 0.1000000000 0.1000000000 0.1000000000 0.1000000000 0.1000000000 0.1000000000 0.1000000000 0.1000000000 0.1000000000 0.1000000000 0.1000000000 0.1000000000 0.1000000000 0.1000000000 0.1000000000 0.1000000000 0.1000000000 0.1000000000 0.1000000000 0.1000000000 0.1000000000 0.1000000000 0.1000000000 0.1000000000 0.1000000000 0.1000000000 0.1000000000 0.1000000000 0.1000000000 0.1000000000 0.1000000000 0.1000000000 0.1000000000 0.1000000000 0.1000000000 0.1000000000 0.1000000000 0.1000000000 0.1000000000 0.1000000000 0.1000000000 0.1000000000 0.1000000000 0.1000000000 0.1000000000 0.1000000000 0.1000000000 0.1000000000 0.1000000000 0.1000000000 0.1000000000 0.1000000000 0.1000000000 0.1000000000 0.1000000000 0.1000000000 0.1000000000 0.1000000000 0.1000000000 0.1000000000 0.1000000000 0.1000000000 0.1000000000 0.1000000000 0.1000000000 0.1000000000 0.1000000000 0.1000000000 0.1000000000 0.1000000000 0.1000000000 0.1000000000 0.1000000000 0.1000000000 0.1000000000 0.1000000000 0.1000000000 0.1000000000 0.1000000000 0.1000000000 0.1000000000 0.1000000000 0.1000000000 0.1000000000 0.1000000000 0.1000000000 0.1000000000 0.1000000000 0.1000000000 0.1000000000 0.1000000000 0.1000000000 0.1000000000 0.1000000000 0.1000000000 0.1000000000 0.1000000000 0.1000000000 0.1000000000 0.1000000000 0.1000000000 0.1000000000 0.1000000000 0.1000000000 0.1000000000 0.1000000000 0.1000000000 0.1000000000 0.1000000000 0.1000000000 0.1000000000 0.1000000000 0.1000000000 0.1000000000 0.1000000000 0.1000000000 0.1000000000 0.1000000000 0.1000000000 0.1000000000 0.1000000000 0.1000000000 0.1000000000 0.1000000000 0.1000000000 0.1000000000 0.1000000000 0.1000000000 0.1000000000 0.1000000000 0.1000000000 0.1000000000 0.1000000000 0.1000000000 0.1000000000 0.1000000000 0.1000000000 0.1000000000 0.1000000000 0.1000000000 0.1000000000 0.1000000000 0.1000000000 0.1000000000 0.1000000000 0.1000000000 0.1000000000 0.1000000000 0.1000000000 0.1000000000 0.1000000000 0.1000000000 0.1000000000 0.1000000000 0.1000000000 0.1000000000 0.1000000000 0.1000000000 0.1000000000 0.1000000000 0.1000000000 0.1000000000 0.1000000000 0.1000000000 0.1000000000 0.1000000000 0.1000000000 0.1000000000 0.1000000000 0.1000000000 0.1000000000 0.1000000000 0.1000000000 0.1000000000 0.1000000000 0.1000000000 0.1000000000 0.1000000000 0.1000000000 0.1000000000 0.1000000000 0.1000000000 0.1000000000 0.1000000000 0.1000000000 0.1000000000 0.1000000000 0.1000000000 0.1000000000 0.1000000000 0.1000000000 0.1000000000 0.1000000000 0.1000000000 0.1000000000 0.1000000000 0.1000000000 0.1000000000 0.1000000000 0.1000000000 0.1000000000 0.1000000000 0.1000000000 0.1000000000 0.1000000000 0.1000000000 0.1000000000 0.1000000000 0.1000000000 0.1000000000 0.1000000000 0.1000000000 0.1000000000 0.1000000000 0.1000000000 0.1000000000 0.1000000000 0.1000000000 0.1000000000 0.1000000000 0.1000000000 0.1000000000 0.1000000000 0.1000000000 0.1000000000 0.1000000000 0.1000000000 0.1000000000 0.1000000000 0.1000000000 0.1000000000 0.1000000000 0.1000000000 0.1000000000 0.1000000000 0.1000000000 0.1000000000 0.1000000000 0.1000000000 0.1000000000 0.1000000000 0.1000000000 0.1000000000 0.1000000000 0.1000000000 0.1000000000 0.1000000000 0.1000000000 0.1000000000 0.1000000000 0.1000000000 0.1000000000 0.1000000000 0.1000000000 0.1000000000 0.1000000000 0.1000000000 0.1000000000 0.1000000000 0.1000000000 0.1000000000 0.1000000000 0.1000000000 0.1000000000 0.1000000000 0.1000000000 0.1000000000 0.1000000000 0.1000000000 0.1000000000 0.1000000000 0.1000000000 0.1000000000 0.1000000000 0.1000000000 0.1000000000 0.1000000000 0.1000000000 0.1000000000 0.1000000000 0.1000000000 0.1000000000 0.1000000000 0.1000000000 0.1000000000 0.1000000000 0.1000000000 0.1000000000 0.1000000000 0.1000000000 0.1000000000 0.1000000000 0.1000000000 0.1000000000 0.1000000000 0.1000000000 0.1000000000 0.1000000000 0.1000000000 0.1000000000 0.1000000000 0.1000000000 0.1000000000 0.1000000000 0.1000000000 0.1000000000 0.1000000000 0.1000000000 0.1000000000 0.1000000000 0.1000000000 0.1000000000 0.1000000000 0.1000000000 0.1000000000 0.1000000000 0.1000000000 0.1000000000 0.1000000000 0.1000000000 0.1000000000 0.1000000000 0.1000000000 0.1000000000 0.1000000000 0.1000000000 0.1000000000 0.1000000000 0.1000000000 0.1000000000 0.1000000000 0.1000000000 0.1000000000 0.1000000000 0.1000000000 0.1000000000 0.1000000000 0.1000000000 0.1000000000 0.1000000000 0.1000000000 0.1000000000 0.1000000000 0.1000000000 0.1000000000 0.1000000000 0.1000000000 0.1000000000 0.1000000000 0.1000000000 0.1000000000 0.1000000000 0.1000000000 0.1000000000 0.1000000000 0.1000000000 0.1000000000 0.1000000000 0.1000000000 0.1000000000 0.1000000000 0.1000000000 0.1000000000 0.1000000000 0.1000000000 0.1000000000 0.1000000000 0.1000000000 0.1000000000 0.1000000000 0.1000000000 0.1000000000 0.1000000000 0.1000000000 0.1000000000 0.1000000000 0.1000000000 0.1000000000 0.1000000000 0.1000000000 0.1000000000 0.1000000000 0.1000000000 0.1000000000 0.1000000000 0.1000000000 0.1000000000 0.1000000000 0.1000000000 0.1000000000 0.1000000000 0.1000000000 0.1000000000 0.1000000000 0.1000000000 0.1000000000 0.1000000000 0.1000000000 0.1000000000 0.1000000000 0.1000000000 0.1000000000 0.1000000000 0.1000000000 0.1000000000 0.1000000000 0.1000000000 0.1000000000 0.1000000000 0.1000000000 0.1000000000 0.1000000000 0.1000000000 0.1000000000 0.1000000000 0.1000000000 0.1000000000 0.1000000000 0.1000000000 0.1000000000 0.1000000000 0.1000000000 0.1000000000 0.1000000000 0.1000000000 0.1000000000 0.1000000000 0.1000000000 0.1000000000 0.1000000000 0.1000000000 0.1000000000 0.1000000000 0.1000000000 0.1000000000 0.1000000000 0.1000000000 0.1000000000 0.1000000000 0.1000000000 0.1000000000 0.1000000000 0.1000000000 0.1000000000 0.1000000000 0.1000000000 0.1000000000 0.10000000