<?xml version="1.0"?>
<VTKFile type="UnstructuredGrid" version="0.1" byte_order="LittleEndian">
  <UnstructuredGrid>
    <FieldData>
      <DataArray type="Float32" Name="TIME"  NumberOfTuples="1" format="ascii"> 3.7000000000 </DataArray>
      <DataArray type="Int32"   Name="STEP"  NumberOfTuples="1" format="ascii"> 925000 </DataArray>
    </FieldData>
    <Piece NumberOfPoints="11600" NumberOfCells="11600">
      <Points>
        <DataArray type="Float32" NumberOfComponents="3" format="ascii">
 -0.6971845420 -1.1346138451 0.0000037821 -0.4972673547 -1.1288590102 0.0000038484 -0.2973501645 -1.1231041724 0.0000039074 -0.0974329776 -1.1173493337 0.0000039328 0.1024842125 -1.1115944954 0.0000039470 0.3024014021 -1.1058396581 0.0000039492 0.5023185929 -1.1000848204 0.0000039433 0.7022357851 -1.0943299836 0.0000039339 0.9021529948 -1.0885751435 0.0000039052 1.1020701890 -1.0828202997 0.0000038913 1.3019873837 -1.0770654556 0.0000038784 1.5019045787 -1.0713106103 0.0000038713 1.7018217733 -1.0655557655 0.0000038739 1.9017389941 -1.0598009153 0.0000038906 2.1016561896 -1.0540460605 0.0000039291 2.3015733858 -1.0482912060 0.0000039754 2.5014905815 -1.0425363494 0.0000040255 2.7014077763 -1.0367814929 0.0000040737 2.9013249885 -1.0310266325 0.0000041165 3.1012421803 -1.0252717708 0.0000041268 3.3011593716 -1.0195169113 0.0000041210 3.5010765627 -1.0137620521 0.0000041000 3.7009937539 -1.0080071941 0.0000040670 3.9009109580 -1.0022523344 0.0000040278 4.1008281497 -0.9964974755 0.0000039529 4.3007453427 -0.9907426182 0.0000038604 4.5006625367 -0.9849877608 0.0000037449 4.7005797309 -0.9792329052 0.0000036046 4.9004969520 -0.9734780478 0.0000034338 5.1004141481 -0.9677231879 0.0000032205 5.3003313453 -0.9619683289 0.0000029880 5.5002485424 -0.9562134706 0.0000027403 5.7001657393 -0.9504586158 0.0000024836 5.9000829802 -0.9447037543 0.0000022060 6.1000001783 -0.9389488870 0.0000019604 6.2999173780 -0.9331940230 0.0000017314 6.4998345785 -0.9274391605 0.0000015266 6.6997517780 -0.9216843018 0.0000013484 6.8996690215 -0.9159294382 0.0000012031 7.0995862223 -0.9101745713 0.0000010850 7.2995034265 -0.9044197069 0.0000009694 7.4994206313 -0.8986648414 0.0000008475 7.6993378337 -0.8929099777 0.0000007163 7.8992550862 -0.8871551085 0.0000005663 8.0991722873 -0.8814002357 0.0000004325 8.2990894908 -0.8756453661 0.0000003103 8.4990066939 -0.8698904965 0.0000002036 8.6989238945 -0.8641356303 0.0000001128 8.8988411373 -0.8583807615 0.0000000426 9.0987583368 -0.8526258874 -0.0000000189 9.2986755372 -0.8468710149 -0.0000000802 9.4985927371 -0.8411161422 -0.0000001440 9.6985099349 -0.8353612713 -0.0000002092 9.8984271690 -0.8296063963 -0.0000002759 10.0983443656 -0.8238515171 -0.0000003237 10.2982615639 -0.8180966406 -0.0000003609 10.4981787619 -0.8123417650 -0.0000003868 10.6980959592 -0.8065868923 -0.0000004029 10.8980131915 -0.8008320145 -0.0000004059 11.0979303878 -0.7950771320 -0.0000003943 11.2978475845 -0.7893222514 -0.0000003712 11.4977647805 -0.7835673705 -0.0000003309 11.6976819753 -0.7778124902 -0.0000002712 11.8975991864 -0.7720576053 -0.0000001625 12.0975163770 -0.7663027190 -0.0000000505 12.2974335709 -0.7605478346 0.0000000895 12.4973507595 -0.7547929513 0.0000002232 12.6972679479 -0.7490380705 0.0000003594 12.8971851336 -0.7432831905 0.0000005053 13.0971023231 -0.7375283113 0.0000006427 13.2970195084 -0.7317734309 0.0000007900 13.5641866261 -0.7084845839 -0.0000000000 13.7641842821 -0.7094527468 0.0000000000 13.9641819380 -0.7104209094 0.0000000000 14.1641795966 -0.7113890715 0.0000000000 14.3641772527 -0.7123572345 0.0000000000 14.5641749098 -0.7133253967 0.0000000000 14.7641725670 -0.7142935596 0.0000000000 14.9641702232 -0.7152617221 0.0000000000 15.1641678812 -0.7162298847 0.0000000000 15.3641655375 -0.7171980474 0.0000000000 15.5641631950 -0.7181662100 0.0000000000 15.7641608520 -0.7191343721 0.0000000000 16.0798230334 -0.5341643005 -0.0000008657 16.2796767421 -0.5265161425 0.0000027466 16.4795304475 -0.5188679855 0.0000001439 16.6793841564 -0.5112198297 -0.0000005977 16.8792378645 -0.5035716737 0.0000000903 17.0790915723 -0.4959235164 0.0000004517 17.2789452807 -0.4882753602 0.0000009916 17.4787989857 -0.4806272049 0.0000006729 17.6786526947 -0.4729790512 0.0000002362 17.8785064035 -0.4653308973 -0.0000002755 18.0783601127 -0.4576827416 0.0000003535 18.2782138225 -0.4500345852 0.0000009699 18.4780675300 -0.4423864294 -0.0000023507 18.6779212401 -0.4347382715 -0.0000004232 18.8777749490 -0.4270901150 0.0000007675 19.0776286580 -0.4194419599 -0.0000004746 19.2774823673 -0.4117938048 -0.0000024428 -0.6022097818 -0.9586030677 0.0000035863 -0.4022925951 -0.9528482307 0.0000036532 -0.2023754067 -0.9470933918 0.0000037076 -0.0024582175 -0.9413385535 0.0000037413 0.1974589718 -0.9355837158 0.0000037624 0.3973761623 -0.9298288783 0.0000037747 0.5972933548 -0.9240740409 0.0000037807 0.7972105522 -0.9183192034 0.0000037809 0.9971277504 -0.9125643611 0.0000037774 1.1970449453 -0.9068095174 0.0000037745 1.3969621402 -0.9010546726 0.0000037741 1.5968793367 -0.8952998269 0.0000037797 1.7967965382 -0.8895449810 0.0000037958 1.9967137400 -0.8837901278 0.0000038281 2.1966309370 -0.8780352736 0.0000038705 2.3965481330 -0.8722804179 0.0000039172 2.5964653290 -0.8665255606 0.0000039636 2.7963825285 -0.8607707031 0.0000040030 2.9962997272 -0.8550158412 0.0000040209 3.1962169212 -0.8492609806 0.0000040178 3.3961341139 -0.8435061209 0.0000039972 3.5960513069 -0.8377512617 0.0000039620 3.7959685027 -0.8319964037 0.0000039131 3.9958856991 -0.8262415442 0.0000038413 4.1958028933 -0.8204866866 0.0000037483 4.3957200881 -0.8147318294 0.0000036338 4.5956372850 -0.8089769723 0.0000034955 4.7955544883 -0.8032221174 0.0000033307 4.9954716924 -0.7974672577 0.0000031313 5.1953888918 -0.7917123989 0.0000029095 5.3953060915 -0.7859575403 0.0000026733 5.5952232935 -0.7802026832 0.0000024273 5.7951405035 -0.7744478276 0.0000021764 5.9950577142 -0.7686929614 0.0000019345 6.1949749180 -0.7629380965 0.0000017109 6.3948921215 -0.7571832340 0.0000015090 6.5948093269 -0.7514283729 0.0000013319 6.7947265413 -0.7456735133 0.0000011810 6.9946437563 -0.7399186465 0.0000010574 7.1945609635 -0.7341637819 0.0000009423 7.3944781702 -0.7284089174 0.0000008241 7.5943953789 -0.7226540517 0.0000006971 7.7943125972 -0.7168991874 0.0000005615 7.9942298154 -0.7111443145 0.0000004265 8.1941470233 -0.7053894441 0.0000003022 8.3940642296 -0.6996345745 0.0000001922 8.5939814363 -0.6938797059 0.0000000980 8.7938986510 -0.6881248397 0.0000000197 8.9938158648 -0.6823699659 -0.0000000442 9.1937330693 -0.6766150933 -0.0000001042 9.3936502719 -0.6708602206 -0.0000001654 9.5935674747 -0.6651053481 -0.0000002282 9.7934846839 -0.6593504767 -0.0000002895 9.9934018927 -0.6535955979 -0.0000003414 10.1933190946 -0.6478407208 -0.0000003818 10.3932362956 -0.6420858449 -0.0000004108 10.5931534974 -0.6363309701 -0.0000004295 10.7930707056 -0.6305760964 -0.0000004392 10.9929879129 -0.6248212147 -0.0000004374 11.1929051128 -0.6190663334 -0.0000004261 11.3928223104 -0.6133114526 -0.0000004031 11.5927395069 -0.6075565712 -0.0000003632 11.7926567065 -0.6018016893 -0.0000002996 11.9925739041 -0.5960468032 -0.0000002081 12.1924910981 -0.5902919177 -0.0000001000 12.3924082908 -0.5845370334 0.0000000221 12.5923254799 -0.5787821513 0.0000001494 12.7922426690 -0.5730272698 0.0000002813 12.9921598566 -0.5672723911 0.0000004164 13.1920770436 -0.5615175112 0.0000005535 13.4650262488 -0.5347974544 0.0000000000 13.6650239068 -0.5357656153 0.0000000000 13.8650215637 -0.5367337777 0.0000000000 14.0650192207 -0.5377019406 0.0000000000 14.2650168777 -0.5386701031 0.0000000000 14.4650145347 -0.5396382658 0.0000000000 14.6650121914 -0.5406064285 0.0000000000 14.8650098483 -0.5415745909 0.0000000000 15.0650075056 -0.5425427540 0.0000000000 15.2650051625 -0.5435109161 0.0000000000 15.4650028197 -0.5444790785 0.0000000000 15.6650004740 -0.5454472433 0.0000000000 15.9732726816 -0.3649099911 -0.0000002535 16.1731263896 -0.3572618329 0.0000011447 16.3729800984 -0.3496136745 0.0000015228 16.5728338066 -0.3419655179 0.0000006605 16.7726875143 -0.3343173621 0.0000008890 16.9725412219 -0.3266692053 0.0000008025 17.1723949295 -0.3190210483 0.0000002154 17.3722486374 -0.3113728920 0.0000005739 17.5721023455 -0.3037247379 0.0000010628 17.7719560537 -0.2960765843 0.0000004860 17.9718097621 -0.2884284299 -0.0000002362 18.1716634707 -0.2807802739 -0.0000005849 18.3715171797 -0.2731321173 -0.0000011189 18.5713708886 -0.2654839607 -0.0000007683 18.7712245976 -0.2578358038 0.0000001730 18.9710783068 -0.2501876481 0.0000001166 19.1709320163 -0.2425394933 -0.0000005393 19.3707857254 -0.2348913382 -0.0000007330 -0.7071522133 -0.7883471269 0.0000033231 -0.5072350249 -0.7825922886 0.0000033972 -0.3073178360 -0.7768374497 0.0000034656 -0.1074006485 -0.7710826107 0.0000035203 0.0925165415 -0.7653277725 0.0000035605 0.2924337313 -0.7595729346 0.0000035917 0.4923509225 -0.7538180973 0.0000036160 0.6922681150 -0.7480632597 0.0000036354 0.8921853137 -0.7423084193 0.0000036497 1.0921025076 -0.7365535769 0.0000036604 1.2920197018 -0.7307987326 0.0000036703 1.4919368964 -0.7250438875 0.0000036824 1.6918540912 -0.7192890417 0.0000037003 1.8917712944 -0.7135341919 0.0000037291 2.0916884897 -0.7077793391 0.0000037682 2.2916056848 -0.7020244843 0.0000038119 2.4915228796 -0.6962696279 0.0000038558 2.6914400739 -0.6905147707 0.0000038948 2.8913572761 -0.6847599104 0.0000039188 3.0912744701 -0.6790050495 0.0000039190 3.2911916638 -0.6732501892 0.0000038998 3.4911088572 -0.6674953294 0.0000038630 3.6910260500 -0.6617404704 0.0000038111 3.8909432497 -0.6559856110 0.0000037395 4.0908604434 -0.6502307531 0.0000036446 4.2907776380 -0.6444758964 0.0000035294 4.4906948336 -0.6387210395 0.0000033911 4.6906120297 -0.6329661831 0.0000032294 4.8905292393 -0.6272113260 0.0000030390 5.0904464376 -0.6214564673 0.0000028251 5.2903636375 -0.6157016088 0.0000025986 5.4902808383 -0.6099467512 0.0000023640 5.6901980382 -0.6041918939 0.0000021269 5.8901152559 -0.5984370338
[...]
      <PointData Scalars="radius">
        <DataArray type="Float32" Name="radius" format="ascii">
 0.1000000000 0.1000000000 0.1000000000 0.1000000000 0.1000000000 0.1000000000 0.1000000000 0.1000000000 0.1000000000 0.1000000000 0.1000000000 0.1000000000 0.1000000000 0.1000000000 0.1000000000 0.1000000000 0.1000000000 0.1000000000 0.1000000000 0.1000000000 0.1000000000 0.1000000000 0.1000000000 0.1000000000 0.1000000000 0.1000000000 0.1000000000 0.1000000000 0.1000000000 0.1000000000 0.1000000000 0.1000000000 0.1000000000 0.1000000000 0.1000000000 0.1000000000 0.1000000000 0.1000000000 0.1000000000 0.1000000000 0.1000000000 0.1000000000 0.1000000000 0.1000000000 0.1000000000 0.1000000000 0.1000000000 0.1000000000 0.1000000000 0.1000000000 0.1000000000 0.1000000000 0.1000000000 0.1000000000 0.1000000000 0.1000000000 0.1000000000 0.1000000000 0.1000000000 0.1000000000 0.1000000000 0.1000000000 0.1000000000 0.1000000000 0.1000000000 0.1000000000 0.1000000000 0.1000000000 0.1000000000 0.1000000000 0.1000000000 0.1000000000 0.1000000000 0.1000000000 0.1000000000 0.1000000000 0.1000000000 0.1000000000 0.1000000000 0.1000000000 0.1000000000 0.1000000000 0.1000000000 0.1000000000 0.1000000000 0.1000000000 0.1000000000 0.1000000000 0.1000000000 0.1000000000 0.1000000000 0.1000000000 0.1000000000 0.1000000000 0.1000000000 0.1000000000 0.1000000000 0.1000000000 0.1000000000 0.1000000000 0.1000000000 0.1000000000 0.1000000000 0.1000000000 0.1000000000 0.1000000000 0.1000000000 0.1000000000 0.1000000000 0.1000000000 0.1000000000 0.1000000000 0.1000000000 0.1000000000 0.1000000000 0.1000000000 0.1000000000 0.1000000000 0.1000000000 0.1000000000 0.1000000000 0.1000000000 0.1000000000 0.1000000000 0.1000000000 0.1000000000 0.1000000000 0.1000000000 0.1000000000 0.1000000000 0.1000000000 0.1000000000 0.1000000000 0.1000000000 0.1000000000 0.1000000000 0.1000000000 0.1000000000 0.1000000000 0.1000000000 0.1000000000 0.1000000000 0.1000000000 0.1000000000 0.1000000000 0.1000000000 0.1000000000 0.1000000000 0.1000000000 0.1000000000 0.1000000000 0.1000000000 0.1000000000 0.1000000000 0.1000000000 0.1000000000 0.1000000000 0.1000000000 0.1000000000 0.1000000000 0.1000000000 0.1000000000 0.1000000000 0.1000000000 0.1000000000 0.1000000000 0.1000000000 0.1000000000 0.1000000000 0.1000000000 0.1000000000 0.1000000000 0.1000000000 0.1000000000 0.1000000000 0.1000000000 0.1000000000 0.1000000000 0.1000000000 0.1000000000 0.1000000000 0.1000000000 0.1000000000 0.1000000000 0.1000000000 0.1000000000 0.1000000000 0.1000000000 0.1000000000 0.1000000000 0.1000000000 0.1000000000 0.1000000000 0.1000000000 0.1000000000 0.1000000000 0.1000000000 0.1000000000 0.1000000000 0.1000000000 0.1000000000 0.1000000000 0.1000000000 0.1000000000 0.1000000000 0.1000000000 0.1000000000 0.1000000000 0.1000000000 0.1000000000 0.1000000000 0.1000000000 0.1000000000 0.1000000000 0.1000000000 0.1000000000 0.1000000000 0.1000000000 0.1000000000 0.1000000000 0.1000000000 0.1000000000 0.1000000000 0.1000000000 0.1000000000 0.1000000000 0.1000000000 0.1000000000 0.1000000000 0.1000000000 0.1000000000 0.1000000000 0.1000000000 0.1000000000 0.1000000000 0.1000000000 0.1000000000 0.1000000000 0.1000000000 0.1000000000 0.1000000000 0.1000000000 0.1000000000 0.1000000000 0.1000000000 0.1000000000 0.1000000000 0.1000000000 0.1000000000 0.1000000000 0.1000000000 0.1000000000 0.1000000000 0.1000000000 0.1000000000 0.1000000000 0.1000000000 0.1000000000 0.1000000000 0.1000000000 0.1000000000 0.1000000000 0.1000000000 0.1000000000 0.1000000000 0.1000000000 0.1000000000 0.1000000000 0.1000000000 0.1000000000 0.1000000000 0.1000000000 0.1000000000 0.1000000000 0.1000000000 0.1000000000 0.1000000000 0.1000000000 0.1000000000 0.1000000000 0.1000000000 0.1000000000 0.1000000000 0.1000000000 0.1000000000 0.1000000000 0.1000000000 0.1000000000 0.1000000000 0.1000000000 0.1000000000 0.1000000000 0.1000000000 0.1000000000 0.1000000000 0.1000000000 0.1000000000 0.1000000000 0.1000000000 0.1000000000 0.1000000000 0.1000000000 0.1000000000 0.1000000000 0.1000000000 0.1000000000 0.1000000000 0.1000000000 0.1000000000 0.1000000000 0.1000000000 0.1000000000 0.1000000000 0.1000000000 0.1000000000 0.1000000000 0.1000000000 0.1000000000 0.1000000000 0.1000000000 0.1000000000 0.1000000000 0.1000000000 0.1000000000 0.1000000000 0.1000000000 0.1000000000 0.1000000000 0.1000000000 0.1000000000 0.1000000000 0.1000000000 0.1000000000 0.1000000000 0.1000000000 0.1000000000 0.1000000000 0.1000000000 0.1000000000 0.1000000000 0.1000000000 0.1000000000 0.1000000000 0.1000000000 0.1000000000 0.1000000000 0.1000000000 0.1000000000 0.1000000000 0.1000000000 0.1000000000 0.1000000000 0.1000000000 0.1000000000 0.1000000000 0.1000000000 0.1000000000 0.1000000000 0.1000000000 0.1000000000 0.1000000000 0.1000000000 0.1000000000 0.1000000000 0.1000000000 0.1000000000 0.1000000000 0.1000000000 0.1000000000 0.1000000000 0.1000000000 0.1000000000 0.1000000000 0.1000000000 0.1000000000 0.1000000000 0.1000000000 0.1000000000 0.1000000000 0.1000000000 0.1000000000 0.1000000000 0.1000000000 0.1000000000 0.1000000000 0.1000000000 0.1000000000 0.1000000000 0.1000000000 0.1000000000 0.1000000000 0.1000000000 0.1000000000 0.1000000000 0.1000000000 0.1000000000 0.1000000000 0.1000000000 0.1000000000 0.1000000000 0.1000000000 0.1000000000 0.1000000000 0.1000000000 0.1000000000 0.1000000000 0.1000000000 0.1000000000 0.1000000000 0.1000000000 0.1000000000 0.1000000000 0.1000000000 0.1000000000 0.1000000000 0.1000000000 0.1000000000 0.1000000000 0.1000000000 0.1000000000 0.1000000000 0.1000000000 0.1000000000 0.1000000000 0.1000000000 0.1000000000 0.1000000000 0.1000000000 0.1000000000 0.1000000000 0.1000000000 0.1000000000 0.1000000000 0.1000000000 0.1000000000 0.1000000000 0.1000000000 0.1000000000 0.1000000000 0.1000000000 0.1000000000 0.1000000000 0.1000000000 0.1000000000 0.1000000000 0.1000000000 0.1000000000 0.1000000000 0.1000000000 0.1000000000 0.1000000000 0.1000000000 0.1000000000 0.1000000000 0.1000000000 0.1000000000 0.1000000000 0.1000000000 0.1000000000 0.1000000000 0.1000000000 0.1000000000 0.1000000000 0.1000000000 0.1000000000 0.1000000000 0.1000000000 0.1000000000 0.1000000000 0.1000000000 0.1000000000 0.1000000000 0.1000000000 0.1000000000 0.1000000000 0.1000000000 0.1000000000 0.1000000000 0.1000000000 0.1000000000 0.1000000000 0.1000000000 0.1000000000 0.1000000000 0.1000000000 0.1000000000 0.1000000000 0.1000000000 0.1000000000 0.1000000000 0.1000000000 0.1000000000 0.1000000000 0.1000000000 0.1000000000 0.1000000000 0.1000000000 0.1000000000 0.1000000000 0.1000000000 0.1000000000 0.1000000000 0.1000000000 0.1000000000 0.1000000000 0.1000000000 0.1000000000 0.1000000000 0.1000000000 0.1000000000 0.1000000000 0.1000000000 0.1000000000 0.1000000000 0.1000000000 0.1000000000 0.1000000000 0.1000000000 0.1000000000 0.1000000000 0.1000000000 0.1000000000 0.1000000000 0.1000000000 0.1000000000 0.1000000000 0.1000000000 0.1000000000 0.1000000000 0.1000000000 0.1000000000 0.1000000000 0.1000000000 0.1000000000 0.1000000000 0.1000000000 0.1000000000 0.1000000000 0.1000000000 0.1000000000 0.1000000000 0.1000000000 0.1000000000 0.1000000000 0.1000000000 0.1000000000 0.1000000000 0.1000000000 0.1000000000 0.1000000000 0.1000000000 0.1000000000 0.1000000000 0.1000000000 0.1000000000 0.1000000000 0.1000000000 0.1000000000 0.1000000000 0.1000000000 0.1000000000 0.1000000000 0.1000000000 0.1000000000 0.1000000000 0.1000000000 0.1000000000 0.1000000000 0.1000000000 0.1000000000 0.1000000000 0.1000000000 0.1000000000 0.1000000000 0.1000000000 0.1000000000 0.1000000000 0.1000000000 0.1000000000 0.1000000000 0.1000000000 0.1000000000 0.1000000000 0.1000000000 0.1000000000 0.1000000000 0.1000000000 0.1000000000 0.1000000000 0.1000000000 0.1000000000 0.1000000000 0.1000000000 0.1000000000 0.1000000000 0.1000000000 0.1000000000 0.1000000000 0.1000000000 0.1000000000 0.1000000000 0.1000000000 0.1000000000 0.1000000000 0.1000000000 0.1000000000 0.1000000000 0.1000000000 0.1000000000 0.1000000000 0.1000000000 0.1000000000 0.1000000000 0.1000000000 0.1000000000 0.1000000000 0.1000000000 0.1000000000 0.1000000000 0.1000000000 0.1000000000 0.1000000000 0.1000000000 0.1000000000 0.1000000000 0.1000000000 0.1000000000 0.1000000000 0.1000000000 0.1000000000 0.1000000000 0.1000000000 0.1000000000 0.1000000000 0.1000000000 0.1000000000 0.1000000000 0.1000000000 0.1000000000 0.1000000000 0.1000000000 0.1000000000 0.1000000000 0.1000000000 0.1000000000 0.1000000000 0.1000000000 0.1000000000 0.1000000000 0.1000000000 0.1000000000 0.1000000000 0.1000000000 0.1000000000 0.1000000000 0.1000000000 0.1000000000 0.1000000000 0.1000000000 0.1000000000 0.1000000000 0.1000000000 0.1000000000 0.1000000000 0.1000000000 0.1000000000 0.1000000000 0.1000000000 0.1000000000 0.1000000000 0.1000000000 0.1000000000 0.1000000000 0.1000000000 0.1000000000 0.1000000000 0.1000000000 0.1000000000 0.1000000000 0.1000000000 0.1000000000 0.1000000000 0.1000000000 0.1000000000 0.1000000000 0.1000000000 0.1000000000 0.1000000000 0.1000000000 0.1000000000 0.1000000000 0.1000000000 0.1000000000 0.1000000000 0.1000000000 0.1000000000 0.1000000000 0.1000000000 0.1000000000 0.1000000000 0.1000000000 0.1000000000 0.1000000000 0.1000000000 0.1000000000 0.1000000000 0.1000000000 0.1000000000 0.1000000000 0.1000000000 0.1000000000 0.1000000000 0.1000000000 0.1000000000 0.1000000000 0.1000000000 0.1000000000 0.1000000000 0.1000000000 0.1000000000 0.1000000000 0.1000000000 0.1000000000 0.1000000000 0.1000000000 0.1000000000 0.1000000000 0.1000000000 0.1000000000 0.1000000000 0.1000000000 0.1000000000 0.1000000000 0.1000000000 0.1000000000 0.1000000000 0.1000000000 0.1000000000 0.1000000000 0.1000000000 0.1000000000 0.1000000000 0.1000000000 0.1000000000 0.1000000000 0.1000000000 0.1000000000 0.1000000000 0.1000000000 0.1000000000 0.1000000000 0.1000000000 0.1000000000 0.1000000000 0.1000000000 0.1000000000 0.1000000000 0.1000000000 0.1000000000 0.1000000000 0.1000000000 0.1000000000 0.1000000000 0.1000000000 0.1000000000 0.1000000000 0.1000000000 0.1000000000 0.1000000000 0.1000000000 0.1000000000 0.1000000000 0.1000000000 0.1000000000 0.1000000000 0.1000000000 0.1000000000 0.1000000000 0.1000000000 0.1000000000 0.1000000000 0.1000000000 0.1000000000 0.1000000000 0.1000000000 0.1000000000 0.1000000000 0.1000000000 0.1000000000 0.1000000000 0.1000000000 0.1000000000 0.1000000000 0.1000000000 0.1000000000 0.1000000000 0.1000000000 0.1000000000 0.1000000000 0.1000000000 0.1000000000 0.1000000000 0.1000000000 0.1000000000 0.1000000000 0.1000000000 0.1000000000 0.1000000000 0.1000000000 0.1000000000 0.1000000000 0.1000000000 0.1000000000 0.1000000000 0.1000000000 0.1000000000 0.1000000000 0.1000000000 0.1000000000 0.1000000000 0.1000000000 0.1000000000 0.1000000000 0.1000000000 0.1000000000 0.1000000000 0.1000000000 0.1000000000 0.1000000000 0.1000000000 0.1000000000 0.1000000000 0.1000000000 0.1000000000 0.1000000000 0.1000000000 0.1000000000 0.1000000000 0.1000000000 0.1000000000 0.1000000000 0.1000000000 0.1000000000 0.1000000000 0.1000000000 0.1000000000 0.1000000000 0.1000000000 0.1000000000 0.1000000000 0.1000000000 0.1000000000 0.1000000000 0.1000000000 0.1000000000 0.1000000000 0.1000000000 0.1000000000 0.1000000000 0.1000000000 0.1000000000 0.1000000000 0.1000000000 0.1000000000 0.1000000000 0.1000000000 0.1000000000 0.1000000000 0.1000000000 0.1000000000 0.1000000000 0.1000000000 0.1000000000 0.1000000000 0.1000000000 0.1000000000 0.1000000000 0.1000000000 0.1000000000 0.1000000000 0.1000000000 0.1000000000 0.1000000000 0.1000000000 0.1000000000 0.1000000000 0.1000000000 0.1000000000 0.1000000000 0.1000000000 0.1000000000 0.1000000000 0.1000000000 0.1000000000 0.1000000000 0.1000000000 0.1000000000 0.1000000000 0.1000000000 0.1000000000 0.1000000000 0.1000000000 0.1000000000 0.1000000000 0.1000000000 0.1000000000 0.1000000000 0.1000000000 0.1000000000 0.1000000000 0.1000000000 0.1000000000 0.1000000000 0.1000000000 0.1000000000 0.1000000000 0.1000000000 0.1000000000 0.1000000000 0.1000000000 0.1000000000 0.1000000000 0.1000000000 0.1000000000 0.1000000000 0.1000000000 0.1000000000 0.1000000000 0.1000000000 0.1000000000 0.1000000000 0.1000000000 0.1000000000 0.1000000000 0.1000000000 0.1000000000 0.1000000000 0.1000000000 0.1000000000 0.1000000000 0.1000000000 0.1000000000 0.1000000000 0.1000000000 0.1000000000 0.1000000000 0.1000000000 0.1000000000 0.1000000000 0.1000000000 0.1000000000 0.1000000000 0.1000000000 0.1000000000 0.1000000000 0.1000000000 0.1000000000 0.1000000000 0.1000000000 0.1000000000 0.1000000000 0.1000000000 0.1000000000 0.1000000000 0.1000000000 0.1000000000 0.1000000000 0.1000000000 0.1000000000 0.1000000000 0.1000000000 0.1000000000 0.1000000000 0.1000000000 0.1000000000 0.1000000000 0.1000000000 0.1000000000 0.1000000000 0.1000000000 0.1000000000 0.1000000000 0.1000000000 0.1000000000 0.1000000000 0.1000000000 0.1000000000 0.1000000000 0.1000000000 0.1000000000 0.1000000000 0.1000000000 0.1000000000 0.1000000000 0.1000000000 0.1000000000 0.1000000000 0.1000000000 0.1000000000 0.1000000000 0.1000000000 0.1000000000 0.1000000000 0.1000000000 0.1000000000 0.1000000000 0.1000000000 0.1000000000 0.1000000000 0.1000000000 0.1000000000 0.1000000000 0.1000000000 0.1000000000 0.1000000000 0.1000000000 0.1000000000 0.1000000000 0.1000000000 0.1000000000 0.1000000000 0.1000000000 0.1000000000 0.1000000000 0.1000000000 0.1000000000 0.1000000000 0.1000000000 0.1000000000 0.1000000000 0.1000000000 0.1000000000 0.1000000000 0.1000000000 0.1000000000 0.1000000000 0.1000000000 0.1000000000 0.1000000000 0.1000000000 0.1000000000 0.1000000000 0.1000000000 0.1000000000 0.1000000000 0.1000000000 0.1000000000 0.1000000000 0.1000000000 0.1000000000 0.1000000000 0.1000000000 0.1000000000 0.1000000000 0.1000000000 0.1000000000 0.1000000000 0.1000000000 0.1000000000 0.1000000000 0.1000000000 0.1000000000 0.1000000000 0.1000000000 0.1000000000 0.1000000000 0.1000000000 0.1000000000 0.1000000000 0.1000000000 0.1000000000 0.1000000000 0.1000000000 0.1000000000 0.1000000000 0.1000000000 0.1000000000 0.1000000000 0.1000000000 0.1000000000 0.1000000000 0.1000000000 0.1000000000 0.1000000000 0.1000000000 0.1000000000 0.1000000000 0.1000000000 0.1000000000 0.1000000000 0.1000000000 0.1000000000 0.1000000000 0.1000000000 0.1000000000 0.1000000000 0.1000000000 0.1000000000 0.1000000000 0.1000000000 0.1000000000 0.1000000000 0.1000000000 0.1000000000 0.1000000000 0.1000000000 0.1000000000 0.1000000000 0.1000000000 0.1000000000 0.1000000000 0.1000000000 0.1000000000 0.1000000000 0.1000000000 0.1000000000 0.1000000000 0.1000000000 0.1000000000 0.1000000000 0.1000000000 0.1000000000 0.1000000000 0.1000000000 0.1000000000 0.1000000000 0.1000000000 0.1000000000 0.1000000000 0.1000000000 0.1000000000 0.1000000000 0.1000000000 0.1000000000 0.1000000000 0.1000000000 0.1000000000 0.1000000000 0.1000000000 0.1000000000 0.1000000000 0.1000000000 0.1000000000 0.1000000000 0.1000000000 0.1000000000 0.1000000000 0.1000000000 0.1000000000 0.1000000000 0.1000000000 0.1000000000 0.1000000000 0.1000000000 0.1000000000 0.1000000000 0.1000000000 0.1000000000 0.1000000000 0.1000000000 0.1000000000 0.1000000000 0.1000000000 0.1000000000 0.1000000000 0.1000000000 0.1000000000 0.1000000000 0.1000000000 0.1000000000 0.1000000000 0.1000000000 0.1000000000 0.1000000000 0.1000000000 0.1000000000 0.1000000000 0.1000000000 0.1000000000 0.1000000000 0.1000000000 0.1000000000 0.1000000000 0.1000000000 0.1000000000 0.1000000000 0.1000000000 0.1000000000 0.1000000000 0.1000000000 0.1000000000 0.1000000000 0.1000000000 0.1000000000 0.1000000000 0.1000000000 0.1000000000 0.1000000000 0.1000000000 0.1000000000 0.1000000000 0.1000000000 0.1000000000 0.1000000000 0.1000000000 0.1000000000 0.1000000000 0.1000000000 0.1000000000 0.1000000000 0.1000000000 0.1000000000 0.1000000000 0.1000000000 0.1000000000 0.1000000000 0.1000000000 0.1000000000 0.1000000000 0.1000000000 0.1000000000 0.1000000000 0.1000000000 0.1000000000 0.1000000000 0.1000000000 0.1000000000 0.1000000000 0.1000000000 0.1000000000 0.1000000000 0.1000000000 0.1000000000 0.1000000000 0.1000000000 0.1000000000 0.1000000000 0.1000000000 0.1000000000 0.1000000000 0.1000000000 0.1000000000 0.1000000000 0.1000000000 0.1000000000 0.1000000000 0.1000000000 0.1000000000 0.1000000000 0.1000000000 0.1000000000 0.1000000000 0.1000000000 0.1000000000 0.1000000000 0.1000000000 0.1000000000 0.1000000000 0.1000000000 0.1000000000 0.1000000000 0.1000000000 0.1000000000 0.1000000000 0.1000000000 0.1000000000 0.1000000000 0.1000000000 0.1000000000 0.1000000000 0.1000000000 0.1000000000 0.1000000000 0.1000000000 0.1000000000 0.1000000000 0.1000000000 0.1000000000 0.1000000000 0.1000000000 0.1000000000 0.1000000000 0.1000000000 0.1000000000 0.1000000000 0.1000000000 0.1000000000 0.1000000000 0.1000000000 0.1000000000 0.1000000000 0.1000000000 0.1000000000 0.1000000000 0.1000000000 0.1000000000 0.1000000000 0.1000000000 0.1000000000 0.1000000000 0.1000000000 0.1000000000 0.1000000000 0.1000000000 0.1000000000 0.1000000000 0.1000000000 0.1000000000 0.1000000000 0.1000000000 0.1000000000 0.1000000000 0.1000000000 0.1000000000 0.1000000000 0.1000000000 0.1000000000 0.1000000000 0.1000000000 0.1000000000 0.1000000000 0.1000000000 0.1000000000 0.1000000000 0.1000000000 0.1000000000 0.1000000000 0.1000000000 0.1000000000 0.1000000000 0.1000000000 0.1000000000 0.1000000000 0.1000000000 0.1000000000 0.1000000000 0.1000000000 0.1000000000 0.1000000000 0.1000000000 0.1000000000 0.1000000000 0.1000000000 0.1000000000 0.1000000000 0.1000000000 0.1000000000 0.1000000000 0.1000000000 0.1000000000 0.1000000000 0.1000000000 0.1000000000 0.1000000000 0.1000000000 0.1000000000 0.1000000000 0.1000000000 0.1000000000 0.1000000000 0.1000000000 0.1000000000 0.1000000000 0.1000000000 0.1000000000 0.1000000000 0.1000000000 0.1000000000 0.1000000000 0.1000000000 0.1000000000 0.1000000000 0.1000000000 0.1000000000 0.1000000000 0.1000000000 0.1000000000 0.1000000000 0.1000000000 0.1000000000 0.1000000000 0.1000000000 0.1000000000 0.1000000000 0.1000000000 0.1000000000 0.1000000000 0.1000000000 0.1000000000 0.1000000000 0.1000000000 0.1000000000 0.1000000000 0.1000000000 0.1000000000 0.1000000000 0.1000000000 0.1000000000 0.1000000000 0.1000000000 0.1000000000 0.1000000000 0.1000000000 0.1000000000 0.1000000000 0.1000000000 0.1000000000 0.1000000000 0.1000000000 0.1000000000 0.1000000000 0.1000000000 0.1000000000 0.1000000000 0.1000000000 0.1000000000 0.1000000000 0.1000000000 0.1000000000 0.1000000000 0.1000000000 0.1000000000 0.1000000000 0.1000000000 0.1000000000 0.1000000000 0.1000000000 0.1000000000 0.1000000000 0.1000000000 0.1000000000 0.1000000000 0.1000000000 0.1000000000 0.1000000000 0.1000000000 0.1000000000 0.1000000000 0.1000000000 0.1000000000 0.1000000000 0.1000000000 0.1000000000 0.1000000000 0.1000000000 0.1000000000 0.1000000000 0.1000000000 0.1000000000 0.1000000000 0.1000000000 0.1000000000 0.1000000000 0.1000000000 0.1000000000 0.1000000000 0.1000000000 0.1000000000 0.1000000000 0.1000000000 0.1000000000 0.1000000000 0.1000000000 0.1000000000 0.1000000000 0.1000000000 0.1000000000 0.1000000000 0.1000000000 0.1000000000 0.1000000000 0.1000000000 0.1000000000 0.1000000000 0.1000000000 0.1000000000 0.1000000000 0.1000000000 0.1000000000 0.1000000000 0.1000000000 0.1000000000 0.1000000000 0.1000000000 0.1000000000 0.1000000000 0.1000000000 0.1000000000 0.1000000000 0.1000000000 0.1000000000 0.1000000000 0.1000000000 0.1000000000 0.1000000000 0.1000000000 0.1000000000 0.1000000000 0.1000000000 0.1000000000 0.1000000000 0.1000000000 0.1000000000 0.1000000000 0.1000000000 0.1000000000 0.1000000000 0.1000000000 0.1000000000 0.1000000000 0.1000000000 0.1000000000 0.1000000000 0.1000000000 0.1000000000 0.1000000000 0.1000000000 0.1000000000 0.1000000000 0.1000000000 0.1000000000 0.1000000000 0.1000000000 0.1000000000 0.1000000000 0.1000000000 0.1000000000 0.1000000000 0.1000000000 0.1000000000 0.10000000