<?xml version="1.0"?>
<VTKFile type="UnstructuredGrid" version="0.1" byte_order="LittleEndian">
  <UnstructuredGrid>
    <FieldData>
      <DataArray type="Float32" Name="TIME"  NumberOfTuples="1" format="ascii"> 0.7000000000 </DataArray>
      <DataArray type="Int32"   Name="STEP"  NumberOfTuples="1" format="ascii"> 175000 </DataArray>
    </FieldData>
    <Piece NumberOfPoints="11600" NumberOfCells="11600">
      <Points>
        <DataArray type="Float32" NumberOfComponents="3" format="ascii">
 -0.1094041688 -0.2560060481 0.0000000000 0.0905895954 -0.2544270757 0.0000000000 0.2905833600 -0.2528481088 0.0000000000 0.4905771186 -0.2512691489 0.0000000000 0.6905708828 -0.2496901923 0.0000000000 0.8905646448 -0.2481112349 0.0000000000 1.0905584040 -0.2465322762 0.0000000000 1.2905521611 -0.2449533204 0.0000000000 1.4905459041 -0.2433743704 0.0000000000 1.6905396569 -0.2417954273 0.0000000000 1.8905334070 -0.2402164915 0.0000000000 2.0905271563 -0.2386375661 0.0000000000 2.2905209077 -0.2370586540 0.0000000000 2.4905146484 -0.2354797610 0.0000000000 2.6905084021 -0.2339008785 0.0000000000 2.8905021532 -0.2323219988 0.0000000000 3.0904959033 -0.2307431220 0.0000000000 3.2904896570 -0.2291642628 0.0000000000 3.4904834049 -0.2275854321 0.0000000000 3.6904771710 -0.2260066191 0.0000000000 3.8904709471 -0.2244278057 0.0000000000 4.0904647364 -0.2228489838 0.0000000000 4.2904585303 -0.2212701590 0.0000000000 4.4904524997 -0.2196912852 0.0000000000 4.6904463059 -0.2181123705 0.0000000000 4.8904401192 -0.2165334600 0.0000000000 5.0904339304 -0.2149545476 0.0000000000 5.2904277330 -0.2133756361 0.0000000000 5.4904216550 -0.2117967004 0.0000000000 5.6904154440 -0.2102177505 0.0000000000 5.8904092300 -0.2086388200 0.0000000000 6.0904030128 -0.2070599033 0.0000000000 6.2903967964 -0.2054809986 0.0000000000 6.4903906158 -0.2039020918 0.0000000000 6.6903843942 -0.2023231689 0.0000000000 6.8903781671 -0.2007442413 0.0000000000 7.0903719345 -0.1991653076 0.0000000000 7.2903657032 -0.1975863706 0.0000000000 7.4903594886 -0.1960074193 0.0000000000 7.6903532675 -0.1944284719 0.0000000000 7.8903470532 -0.1928495192 0.0000000000 8.0903408396 -0.1912705583 0.0000000000 8.2903346206 -0.1896915917 0.0000000000 8.4903283974 -0.1881126348 0.0000000000 8.6903221719 -0.1865336802 0.0000000000 8.8903159454 -0.1849547268 0.0000000000 9.0903097202 -0.1833757805 0.0000000000 9.2903034986 -0.1817968432 0.0000000000 9.4902973909 -0.1802178705 0.0000000000 9.6902911761 -0.1786388760 0.0000000000 9.8902849595 -0.1770598857 0.0000000000 10.0902787398 -0.1754809028 0.0000000000 10.2902725175 -0.1739019302 0.0000000000 10.4902663055 -0.1723229554 0.0000000000 10.6902600862 -0.1707439910 0.0000000000 10.8902538705 -0.1691650186 0.0000000000 11.0902476571 -0.1675860380 0.0000000000 11.2902414405 -0.1660070513 -0.0000000000 11.4902352371 -0.1644280656 -0.0000000000 11.6902290099 -0.1628490792 -0.0000000000 11.8902227838 -0.1612700959 -0.0000000000 12.0902165625 -0.1596911155 -0.0000000000 12.2902103451 -0.1581121429 -0.0000000000 12.4902042317 -0.1565331389 -0.0000000000 12.6901980234 -0.1549541171 -0.0000000000 12.8901919572 -0.1533750650 -0.0000000000 13.0901857555 -0.1517959717 -0.0000000000 13.2901795558 -0.1502168820 -0.0000000000 13.4901734821 -0.1486377589 -0.0000000000 13.6901672741 -0.1470585832 -0.0000000000 13.8901611576 -0.1454793366 -0.0000000000 14.0961618417 -0.1433426034 -0.0000000000 14.2961618075 -0.1434587907 -0.0000000000 14.4961617732 -0.1435749778 -0.0000000000 14.6961617417 -0.1436911642 -0.0000000000 14.8961617076 -0.1438073514 -0.0000000000 15.0961616746 -0.1439235377 -0.0000000000 15.2961616416 -0.1440397246 -0.0000000000 15.4961616077 -0.1441559109 -0.0000000000 15.6961615756 -0.1442720972 -0.0000000000 15.8961615416 -0.1443882836 -0.0000000000 16.0961615087 -0.1445044698 0.0000000000 16.2961614755 -0.1446206556 0.0000000000 16.5186379793 -0.1094221745 0.0000000017 16.7186322239 -0.1079058278 0.0000000014 16.9186264641 -0.1063895057 0.0000000012 17.1186207227 -0.1048731876 0.0000000010 17.3186149887 -0.1033568663 0.0000000007 17.5186092567 -0.1018405417 0.0000000005 17.7186035254 -0.1003242152 0.0000000002 17.9185978678 -0.0988078750 -0.0000000001 18.1185921357 -0.0972915161 -0.0000000004 18.3185864075 -0.0957751598 -0.0000000006 18.5185806811 -0.0942587993 -0.0000000009 18.7185749517 -0.0927424380 -0.0000000012 18.9185692835 -0.0912260748 -0.0000000015 19.1185635560 -0.0897096875 -0.0000000018 19.3185578303 -0.0881932968 -0.0000000021 19.5185521019 -0.0866768983 -0.0000000023 19.7185463637 -0.0851604947 -0.0000000026 -0.0107747122 -0.0820168774 0.0000000000 0.1892190527 -0.0804379091 0.0000000000 0.3892128182 -0.0788589451 0.0000000000 0.5892065833 -0.0772799878 0.0000000000 0.7892003462 -0.0757010305 0.0000000000 0.9891941071 -0.0741220715 0.0000000000 1.1891878660 -0.0725431137 0.0000000000 1.3891816226 -0.0709641600 0.0000000000 1.5891753785 -0.0693852149 0.0000000000 1.7891691346 -0.0678062754 0.0000000000 1.9891628913 -0.0662273443 0.0000000000 2.1891566489 -0.0646484251 0.0000000000 2.3891504075 -0.0630695218 0.0000000000 2.5891441665 -0.0614906355 0.0000000000 2.7891379237 -0.0599117544 0.0000000000 2.9891316803 -0.0583328751 0.0000000000 3.1891254417 -0.0567540064 0.0000000000 3.3891192076 -0.0551751608 0.0000000000 3.5891129780 -0.0535963399 0.0000000000 3.7891067521 -0.0520175283 0.0000000000 3.9891005368 -0.0504387140 0.0000000000 4.1890943376 -0.0488598912 0.0000000000 4.3890881691 -0.0472810534 0.0000000000 4.5890820079 -0.0457021502 0.0000000000 4.7890758281 -0.0441232401 0.0000000000 4.9890696445 -0.0425443284 0.0000000000 5.1890634628 -0.0409654148 0.0000000000 5.3890572975 -0.0393864979 0.0000000000 5.5890511297 -0.0378075499 0.0000000000 5.7890449358 -0.0362286097 0.0000000000 5.9890387317 -0.0346496840 0.0000000000 6.1890325250 -0.0330707713 0.0000000000 6.3890263186 -0.0314918660 0.0000000000 6.5890201077 -0.0299129493 0.0000000000 6.7890138835 -0.0283340233 0.0000000000 6.9890076529 -0.0267550928 0.0000000000 7.1890014210 -0.0251761578 0.0000000000 7.3889951918 -0.0235972176 0.0000000000 7.5889889689 -0.0220182677 0.0000000000 7.7889827464 -0.0204393186 0.0000000000 7.9889765271 -0.0188603630 0.0000000000 8.1889703083 -0.0172813991 0.0000000000 8.3889640900 -0.0157024350 0.0000000000 8.5889578693 -0.0141234789 0.0000000000 8.7889516482 -0.0125445254 0.0000000000 8.9889454296 -0.0109655756 0.0000000000 9.1889392177 -0.0093866316 0.0000000000 9.3889330260 -0.0078076860 0.0000000000 9.5889268360 -0.0062286986 0.0000000000 9.7889206280 -0.0046497062 0.0000000000 9.9889144150 -0.0030707184 0.0000000000 10.1889081993 -0.0014917393 0.0000000000 10.3889019830 0.0000872352 0.0000000000 10.5888957675 0.0016662046 0.0000000000 10.7888895499 0.0032451708 0.0000000000 10.9888833323 0.0048241464 0.0000000000 11.1888771155 0.0064031302 -0.0000000000 11.3888709026 0.0079821156 -0.0000000000 11.5888646834 0.0095611044 -0.0000000000 11.7888584585 0.0111400895 -0.0000000000 11.9888522375 0.0127190711 -0.0000000000 12.1888460267 0.0142980483 -0.0000000000 12.3888398361 0.0158770287 -0.0000000000 12.5888336557 0.0174560445 -0.0000000000 12.7888274839 0.0190350725 -0.0000000000 12.9888213133 0.0206141506 -0.0000000000 13.1888151270 0.0221932381 -0.0000000000 13.3888089528 0.0237723373 -0.0000000000 13.5888027687 0.0253514921 -0.0000000000 13.7887965589 0.0269306807 -0.0000000000 13.9962624772 0.0299205385 -0.0000000000 14.1962624448 0.0298043532 -0.0000000000 14.3962624115 0.0296881663 -0.0000000000 14.5962623783 0.0295719789 -0.0000000000 14.7962623450 0.0294557923 -0.0000000000 14.9962623118 0.0293396054 -0.0000000000 15.1962622783 0.0292234186 -0.0000000000 15.3962622449 0.0291072323 -0.0000000000 15.5962622120 0.0289910455 -0.0000000000 15.7962621785 0.0288748597 -0.0000000000 15.9962621455 0.0287586736 0.0000000000 16.1962621094 0.0286424852 0.0000000000 16.4173276445 0.0630197460 0.0000000017 16.6173218960 0.0645361023 0.0000000015 16.8173161515 0.0660524402 0.0000000012 17.0173104106 0.0675687561 0.0000000010 17.2173046734 0.0690850739 0.0000000007 17.4172989405 0.0706013959 0.0000000005 17.6172932128 0.0721177208 0.0000000002 17.8172874970 0.0736340509 -0.0000000000 18.0172817810 0.0751504060 -0.0000000003 18.2172760546 0.0766667619 -0.0000000006 18.4172703276 0.0781831181 -0.0000000009 18.6172646034 0.0796994767 -0.0000000012 18.8172588894 0.0812158367 -0.0000000015 19.0172531766 0.0827322158 -0.0000000017 19.2172474527 0.0842486037 -0.0000000020 19.4172417238 0.0857649985 -0.0000000023 19.6172359898 0.0872814011 -0.0000000025 19.8172302476 0.0887978065 -0.0000000028 -0.1121390161 0.0903933259 0.0000000000 0.0878547488 0.0919722932 0.0000000000 0.2878485156 0.0935512590 0.0000000000 0.4878422804 0.0951302181 0.0000000000 0.6878360465 0.0967091757 0.0000000000 0.8878298102 0.0982881346 0.0000000000 1.0878235725 0.0998670927 0.0000000000 1.2878173344 0.1014460471 0.0000000000 1.4878110922 0.1030249956 0.0000000000 1.6878048546 0.1046039366 0.0000000000 1.8877986178 0.1061828717 0.0000000000 2.0877923826 0.1077617969 0.0000000000 2.2877861494 0.1093407092 0.0000000000 2.4877799148 0.1109196042 0.0000000000 2.6877736800 0.1124984881 0.0000000000 2.8877674444 0.1140773671 0.0000000000 3.0877612109 0.1156562414 0.0000000000 3.2877549813 0.1172351021 0.0000000000 3.4877487651 0.1188139325 0.0000000000 3.6877425425 0.1203927531 0.0000000000 3.8877363221 0.1219715658 0.0000000000 4.0877301086 0.1235503834 0.0000000000 4.2877238990 0.1251292162 0.0000000000 4.4877177357 0.1267080846 0.0000000000 4.6877115400 0.1282869864 0.0000000000 4.8877053502 0.1298658959 0.0000000000 5.0876991623 0.1314448071 0.0000000000 5.2876929691 0.1330237235 0.0000000000 5.4876868272 0.1346026511 0.0000000000 5.6876806303 0.1361815922 0.0000000000 5.8876744334 0.1377605274 0.0000000000 6.0876682298 0.1393394505 0.0000000000 6.2876620183 0.1409183676 0.0000000000 6.4876558193 0.1424972748 0.0000000000 6.6876495956 0.1440761957 0.0000000000 6.887643368
[...]
      <PointData Scalars="radius">
        <DataArray type="Float32" Name="radius" format="ascii">
 0.1000000000 0.1000000000 0.1000000000 0.1000000000 0.1000000000 0.1000000000 0.1000000000 0.1000000000 0.1000000000 0.1000000000 0.1000000000 0.1000000000 0.1000000000 0.1000000000 0.1000000000 0.1000000000 0.1000000000 0.1000000000 0.1000000000 0.1000000000 0.1000000000 0.1000000000 0.1000000000 0.1000000000 0.1000000000 0.1000000000 0.1000000000 0.1000000000 0.1000000000 0.1000000000 0.1000000000 0.1000000000 0.1000000000 0.1000000000 0.1000000000 0.1000000000 0.1000000000 0.1000000000 0.1000000000 0.1000000000 0.1000000000 0.1000000000 0.1000000000 0.1000000000 0.1000000000 0.1000000000 0.1000000000 0.1000000000 0.1000000000 0.1000000000 0.1000000000 0.1000000000 0.1000000000 0.1000000000 0.1000000000 0.1000000000 0.1000000000 0.1000000000 0.1000000000 0.1000000000 0.1000000000 0.1000000000 0.1000000000 0.1000000000 0.1000000000 0.1000000000 0.1000000000 0.1000000000 0.1000000000 0.1000000000 0.1000000000 0.1000000000 0.1000000000 0.1000000000 0.1000000000 0.1000000000 0.1000000000 0.1000000000 0.1000000000 0.1000000000 0.1000000000 0.1000000000 0.1000000000 0.1000000000 0.1000000000 0.1000000000 0.1000000000 0.1000000000 0.1000000000 0.1000000000 0.1000000000 0.1000000000 0.1000000000 0.1000000000 0.1000000000 0.1000000000 0.1000000000 0.1000000000 0.1000000000 0.1000000000 0.1000000000 0.1000000000 0.1000000000 0.1000000000 0.1000000000 0.1000000000 0.1000000000 0.1000000000 0.1000000000 0.1000000000 0.1000000000 0.1000000000 0.1000000000 0.1000000000 0.1000000000 0.1000000000 0.1000000000 0.1000000000 0.1000000000 0.1000000000 0.1000000000 0.1000000000 0.1000000000 0.1000000000 0.1000000000 0.1000000000 0.1000000000 0.1000000000 0.1000000000 0.1000000000 0.1000000000 0.1000000000 0.1000000000 0.1000000000 0.1000000000 0.1000000000 0.1000000000 0.1000000000 0.1000000000 0.1000000000 0.1000000000 0.1000000000 0.1000000000 0.1000000000 0.1000000000 0.1000000000 0.1000000000 0.1000000000 0.1000000000 0.1000000000 0.1000000000 0.1000000000 0.1000000000 0.1000000000 0.1000000000 0.1000000000 0.1000000000 0.1000000000 0.1000000000 0.1000000000 0.1000000000 0.1000000000 0.1000000000 0.1000000000 0.1000000000 0.1000000000 0.1000000000 0.1000000000 0.1000000000 0.1000000000 0.1000000000 0.1000000000 0.1000000000 0.1000000000 0.1000000000 0.1000000000 0.1000000000 0.1000000000 0.1000000000 0.1000000000 0.1000000000 0.1000000000 0.1000000000 0.1000000000 0.1000000000 0.1000000000 0.1000000000 0.1000000000 0.1000000000 0.1000000000 0.1000000000 0.1000000000 0.1000000000 0.1000000000 0.1000000000 0.1000000000 0.1000000000 0.1000000000 0.1000000000 0.1000000000 0.1000000000 0.1000000000 0.1000000000 0.1000000000 0.1000000000 0.1000000000 0.1000000000 0.1000000000 0.1000000000 0.1000000000 0.1000000000 0.1000000000 0.1000000000 0.1000000000 0.1000000000 0.1000000000 0.1000000000 0.1000000000 0.1000000000 0.1000000000 0.1000000000 0.1000000000 0.1000000000 0.1000000000 0.1000000000 0.1000000000 0.1000000000 0.1000000000 0.1000000000 0.1000000000 0.1000000000 0.1000000000 0.1000000000 0.1000000000 0.1000000000 0.1000000000 0.1000000000 0.1000000000 0.1000000000 0.1000000000 0.1000000000 0.1000000000 0.1000000000 0.1000000000 0.1000000000 0.1000000000 0.1000000000 0.1000000000 0.1000000000 0.1000000000 0.1000000000 0.1000000000 0.1000000000 0.1000000000 0.1000000000 0.1000000000 0.1000000000 0.1000000000 0.1000000000 0.1000000000 0.1000000000 0.1000000000 0.1000000000 0.1000000000 0.1000000000 0.1000000000 0.1000000000 0.1000000000 0.1000000000 0.1000000000 0.1000000000 0.1000000000 0.1000000000 0.1000000000 0.1000000000 0.1000000000 0.1000000000 0.1000000000 0.1000000000 0.1000000000 0.1000000000 0.1000000000 0.1000000000 0.1000000000 0.1000000000 0.1000000000 0.1000000000 0.1000000000 0.1000000000 0.1000000000 0.1000000000 0.1000000000 0.1000000000 0.1000000000 0.1000000000 0.1000000000 0.1000000000 0.1000000000 0.1000000000 0.1000000000 0.1000000000 0.1000000000 0.1000000000 0.1000000000 0.1000000000 0.1000000000 0.1000000000 0.1000000000 0.1000000000 0.1000000000 0.1000000000 0.1000000000 0.1000000000 0.1000000000 0.1000000000 0.1000000000 0.1000000000 0.1000000000 0.1000000000 0.1000000000 0.1000000000 0.1000000000 0.1000000000 0.1000000000 0.1000000000 0.1000000000 0.1000000000 0.1000000000 0.1000000000 0.1000000000 0.1000000000 0.1000000000 0.1000000000 0.1000000000 0.1000000000 0.1000000000 0.1000000000 0.1000000000 0.1000000000 0.1000000000 0.1000000000 0.1000000000 0.1000000000 0.1000000000 0.1000000000 0.1000000000 0.1000000000 0.1000000000 0.1000000000 0.1000000000 0.1000000000 0.1000000000 0.1000000000 0.1000000000 0.1000000000 0.1000000000 0.1000000000 0.1000000000 0.1000000000 0.1000000000 0.1000000000 0.1000000000 0.1000000000 0.1000000000 0.1000000000 0.1000000000 0.1000000000 0.1000000000 0.1000000000 0.1000000000 0.1000000000 0.1000000000 0.1000000000 0.1000000000 0.1000000000 0.1000000000 0.1000000000 0.1000000000 0.1000000000 0.1000000000 0.1000000000 0.1000000000 0.1000000000 0.1000000000 0.1000000000 0.1000000000 0.1000000000 0.1000000000 0.1000000000 0.1000000000 0.1000000000 0.1000000000 0.1000000000 0.1000000000 0.1000000000 0.1000000000 0.1000000000 0.1000000000 0.1000000000 0.1000000000 0.1000000000 0.1000000000 0.1000000000 0.1000000000 0.1000000000 0.1000000000 0.1000000000 0.1000000000 0.1000000000 0.1000000000 0.1000000000 0.1000000000 0.1000000000 0.1000000000 0.1000000000 0.1000000000 0.1000000000 0.1000000000 0.1000000000 0.1000000000 0.1000000000 0.1000000000 0.1000000000 0.1000000000 0.1000000000 0.1000000000 0.1000000000 0.1000000000 0.1000000000 0.1000000000 0.1000000000 0.1000000000 0.1000000000 0.1000000000 0.1000000000 0.1000000000 0.1000000000 0.1000000000 0.1000000000 0.1000000000 0.1000000000 0.1000000000 0.1000000000 0.1000000000 0.1000000000 0.1000000000 0.1000000000 0.1000000000 0.1000000000 0.1000000000 0.1000000000 0.1000000000 0.1000000000 0.1000000000 0.1000000000 0.1000000000 0.1000000000 0.1000000000 0.1000000000 0.1000000000 0.1000000000 0.1000000000 0.1000000000 0.1000000000 0.1000000000 0.1000000000 0.1000000000 0.1000000000 0.1000000000 0.1000000000 0.1000000000 0.1000000000 0.1000000000 0.1000000000 0.1000000000 0.1000000000 0.1000000000 0.1000000000 0.1000000000 0.1000000000 0.1000000000 0.1000000000 0.1000000000 0.1000000000 0.1000000000 0.1000000000 0.1000000000 0.1000000000 0.1000000000 0.1000000000 0.1000000000 0.1000000000 0.1000000000 0.1000000000 0.1000000000 0.1000000000 0.1000000000 0.1000000000 0.1000000000 0.1000000000 0.1000000000 0.1000000000 0.1000000000 0.1000000000 0.1000000000 0.1000000000 0.1000000000 0.1000000000 0.1000000000 0.1000000000 0.1000000000 0.1000000000 0.1000000000 0.1000000000 0.1000000000 0.1000000000 0.1000000000 0.1000000000 0.1000000000 0.1000000000 0.1000000000 0.1000000000 0.1000000000 0.1000000000 0.1000000000 0.1000000000 0.1000000000 0.1000000000 0.1000000000 0.1000000000 0.1000000000 0.1000000000 0.1000000000 0.1000000000 0.1000000000 0.1000000000 0.1000000000 0.1000000000 0.1000000000 0.1000000000 0.1000000000 0.1000000000 0.1000000000 0.1000000000 0.1000000000 0.1000000000 0.1000000000 0.1000000000 0.1000000000 0.1000000000 0.1000000000 0.1000000000 0.1000000000 0.1000000000 0.1000000000 0.1000000000 0.1000000000 0.1000000000 0.1000000000 0.1000000000 0.1000000000 0.1000000000 0.1000000000 0.1000000000 0.1000000000 0.1000000000 0.1000000000 0.1000000000 0.1000000000 0.1000000000 0.1000000000 0.1000000000 0.1000000000 0.1000000000 0.1000000000 0.1000000000 0.1000000000 0.1000000000 0.1000000000 0.1000000000 0.1000000000 0.1000000000 0.1000000000 0.1000000000 0.1000000000 0.1000000000 0.1000000000 0.1000000000 0.1000000000 0.1000000000 0.1000000000 0.1000000000 0.1000000000 0.1000000000 0.1000000000 0.1000000000 0.1000000000 0.1000000000 0.1000000000 0.1000000000 0.1000000000 0.1000000000 0.1000000000 0.1000000000 0.1000000000 0.1000000000 0.1000000000 0.1000000000 0.1000000000 0.1000000000 0.1000000000 0.1000000000 0.1000000000 0.1000000000 0.1000000000 0.1000000000 0.1000000000 0.1000000000 0.1000000000 0.1000000000 0.1000000000 0.1000000000 0.1000000000 0.1000000000 0.1000000000 0.1000000000 0.1000000000 0.1000000000 0.1000000000 0.1000000000 0.1000000000 0.1000000000 0.1000000000 0.1000000000 0.1000000000 0.1000000000 0.1000000000 0.1000000000 0.1000000000 0.1000000000 0.1000000000 0.1000000000 0.1000000000 0.1000000000 0.1000000000 0.1000000000 0.1000000000 0.1000000000 0.1000000000 0.1000000000 0.1000000000 0.1000000000 0.1000000000 0.1000000000 0.1000000000 0.1000000000 0.1000000000 0.1000000000 0.1000000000 0.1000000000 0.1000000000 0.1000000000 0.1000000000 0.1000000000 0.1000000000 0.1000000000 0.1000000000 0.1000000000 0.1000000000 0.1000000000 0.1000000000 0.1000000000 0.1000000000 0.1000000000 0.1000000000 0.1000000000 0.1000000000 0.1000000000 0.1000000000 0.1000000000 0.1000000000 0.1000000000 0.1000000000 0.1000000000 0.1000000000 0.1000000000 0.1000000000 0.1000000000 0.1000000000 0.1000000000 0.1000000000 0.1000000000 0.1000000000 0.1000000000 0.1000000000 0.1000000000 0.1000000000 0.1000000000 0.1000000000 0.1000000000 0.1000000000 0.1000000000 0.1000000000 0.1000000000 0.1000000000 0.1000000000 0.1000000000 0.1000000000 0.1000000000 0.1000000000 0.1000000000 0.1000000000 0.1000000000 0.1000000000 0.1000000000 0.1000000000 0.1000000000 0.1000000000 0.1000000000 0.1000000000 0.1000000000 0.1000000000 0.1000000000 0.1000000000 0.1000000000 0.1000000000 0.1000000000 0.1000000000 0.1000000000 0.1000000000 0.1000000000 0.1000000000 0.1000000000 0.1000000000 0.1000000000 0.1000000000 0.1000000000 0.1000000000 0.1000000000 0.1000000000 0.1000000000 0.1000000000 0.1000000000 0.1000000000 0.1000000000 0.1000000000 0.1000000000 0.1000000000 0.1000000000 0.1000000000 0.1000000000 0.1000000000 0.1000000000 0.1000000000 0.1000000000 0.1000000000 0.1000000000 0.1000000000 0.1000000000 0.1000000000 0.1000000000 0.1000000000 0.1000000000 0.1000000000 0.1000000000 0.1000000000 0.1000000000 0.1000000000 0.1000000000 0.1000000000 0.1000000000 0.1000000000 0.1000000000 0.1000000000 0.1000000000 0.1000000000 0.1000000000 0.1000000000 0.1000000000 0.1000000000 0.1000000000 0.1000000000 0.1000000000 0.1000000000 0.1000000000 0.1000000000 0.1000000000 0.1000000000 0.1000000000 0.1000000000 0.1000000000 0.1000000000 0.1000000000 0.1000000000 0.1000000000 0.1000000000 0.1000000000 0.1000000000 0.1000000000 0.1000000000 0.1000000000 0.1000000000 0.1000000000 0.1000000000 0.1000000000 0.1000000000 0.1000000000 0.1000000000 0.1000000000 0.1000000000 0.1000000000 0.1000000000 0.1000000000 0.1000000000 0.1000000000 0.1000000000 0.1000000000 0.1000000000 0.1000000000 0.1000000000 0.1000000000 0.1000000000 0.1000000000 0.1000000000 0.1000000000 0.1000000000 0.1000000000 0.1000000000 0.1000000000 0.1000000000 0.1000000000 0.1000000000 0.1000000000 0.1000000000 0.1000000000 0.1000000000 0.1000000000 0.1000000000 0.1000000000 0.1000000000 0.1000000000 0.1000000000 0.1000000000 0.1000000000 0.1000000000 0.1000000000 0.1000000000 0.1000000000 0.1000000000 0.1000000000 0.1000000000 0.1000000000 0.1000000000 0.1000000000 0.1000000000 0.1000000000 0.1000000000 0.1000000000 0.1000000000 0.1000000000 0.1000000000 0.1000000000 0.1000000000 0.1000000000 0.1000000000 0.1000000000 0.1000000000 0.1000000000 0.1000000000 0.1000000000 0.1000000000 0.1000000000 0.1000000000 0.1000000000 0.1000000000 0.1000000000 0.1000000000 0.1000000000 0.1000000000 0.1000000000 0.1000000000 0.1000000000 0.1000000000 0.1000000000 0.1000000000 0.1000000000 0.1000000000 0.1000000000 0.1000000000 0.1000000000 0.1000000000 0.1000000000 0.1000000000 0.1000000000 0.1000000000 0.1000000000 0.1000000000 0.1000000000 0.1000000000 0.1000000000 0.1000000000 0.1000000000 0.1000000000 0.1000000000 0.1000000000 0.1000000000 0.1000000000 0.1000000000 0.1000000000 0.1000000000 0.1000000000 0.1000000000 0.1000000000 0.1000000000 0.1000000000 0.1000000000 0.1000000000 0.1000000000 0.1000000000 0.1000000000 0.1000000000 0.1000000000 0.1000000000 0.1000000000 0.1000000000 0.1000000000 0.1000000000 0.1000000000 0.1000000000 0.1000000000 0.1000000000 0.1000000000 0.1000000000 0.1000000000 0.1000000000 0.1000000000 0.1000000000 0.1000000000 0.1000000000 0.1000000000 0.1000000000 0.1000000000 0.1000000000 0.1000000000 0.1000000000 0.1000000000 0.1000000000 0.1000000000 0.1000000000 0.1000000000 0.1000000000 0.1000000000 0.1000000000 0.1000000000 0.1000000000 0.1000000000 0.1000000000 0.1000000000 0.1000000000 0.1000000000 0.1000000000 0.1000000000 0.1000000000 0.1000000000 0.1000000000 0.1000000000 0.1000000000 0.1000000000 0.1000000000 0.1000000000 0.1000000000 0.1000000000 0.1000000000 0.1000000000 0.1000000000 0.1000000000 0.1000000000 0.1000000000 0.1000000000 0.1000000000 0.1000000000 0.1000000000 0.1000000000 0.1000000000 0.1000000000 0.1000000000 0.1000000000 0.1000000000 0.1000000000 0.1000000000 0.1000000000 0.1000000000 0.1000000000 0.1000000000 0.1000000000 0.1000000000 0.1000000000 0.1000000000 0.1000000000 0.1000000000 0.1000000000 0.1000000000 0.1000000000 0.1000000000 0.1000000000 0.1000000000 0.1000000000 0.1000000000 0.1000000000 0.1000000000 0.1000000000 0.1000000000 0.1000000000 0.1000000000 0.1000000000 0.1000000000 0.1000000000 0.1000000000 0.1000000000 0.1000000000 0.1000000000 0.1000000000 0.1000000000 0.1000000000 0.1000000000 0.1000000000 0.1000000000 0.1000000000 0.1000000000 0.1000000000 0.1000000000 0.1000000000 0.1000000000 0.1000000000 0.1000000000 0.1000000000 0.1000000000 0.1000000000 0.1000000000 0.1000000000 0.1000000000 0.1000000000 0.1000000000 0.1000000000 0.1000000000 0.1000000000 0.1000000000 0.1000000000 0.1000000000 0.1000000000 0.1000000000 0.1000000000 0.1000000000 0.1000000000 0.1000000000 0.1000000000 0.1000000000 0.1000000000 0.1000000000 0.1000000000 0.1000000000 0.1000000000 0.1000000000 0.1000000000 0.1000000000 0.1000000000 0.1000000000 0.1000000000 0.1000000000 0.1000000000 0.1000000000 0.1000000000 0.1000000000 0.1000000000 0.1000000000 0.1000000000 0.1000000000 0.1000000000 0.1000000000 0.1000000000 0.1000000000 0.1000000000 0.1000000000 0.1000000000 0.1000000000 0.1000000000 0.1000000000 0.1000000000 0.1000000000 0.1000000000 0.1000000000 0.1000000000 0.1000000000 0.1000000000 0.1000000000 0.1000000000 0.1000000000 0.1000000000 0.1000000000 0.1000000000 0.1000000000 0.1000000000 0.1000000000 0.1000000000 0.1000000000 0.1000000000 0.1000000000 0.1000000000 0.1000000000 0.1000000000 0.1000000000 0.1000000000 0.1000000000 0.1000000000 0.1000000000 0.1000000000 0.1000000000 0.1000000000 0.1000000000 0.1000000000 0.1000000000 0.1000000000 0.1000000000 0.1000000000 0.1000000000 0.1000000000 0.1000000000 0.1000000000 0.1000000000 0.1000000000 0.1000000000 0.1000000000 0.1000000000 0.1000000000 0.1000000000 0.1000000000 0.1000000000 0.1000000000 0.1000000000 0.1000000000 0.1000000000 0.1000000000 0.1000000000 0.1000000000 0.1000000000 0.1000000000 0.1000000000 0.1000000000 0.1000000000 0.1000000000 0.1000000000 0.1000000000 0.1000000000 0.1000000000 0.1000000000 0.1000000000 0.1000000000 0.1000000000 0.1000000000 0.1000000000 0.1000000000 0.1000000000 0.1000000000 0.1000000000 0.1000000000 0.1000000000 0.1000000000 0.1000000000 0.1000000000 0.1000000000 0.1000000000 0.1000000000 0.1000000000 0.1000000000 0.1000000000 0.1000000000 0.1000000000 0.1000000000 0.1000000000 0.1000000000 0.1000000000 0.1000000000 0.1000000000 0.1000000000 0.1000000000 0.1000000000 0.1000000000 0.1000000000 0.1000000000 0.1000000000 0.1000000000 0.1000000000 0.1000000000 0.1000000000 0.1000000000 0.1000000000 0.1000000000 0.1000000000 0.1000000000 0.1000000000 0.1000000000 0.1000000000 0.1000000000 0.1000000000 0.1000000000 0.1000000000 0.1000000000 0.1000000000 0.1000000000 0.1000000000 0.1000000000 0.1000000000 0.1000000000 0.1000000000 0.1000000000 0.1000000000 0.1000000000 0.1000000000 0.1000000000 0.1000000000 0.1000000000 0.1000000000 0.1000000000 0.1000000000 0.1000000000 0.1000000000 0.1000000000 0.1000000000 0.1000000000 0.1000000000 0.1000000000 0.1000000000 0.1000000000 0.1000000000 0.1000000000 0.1000000000 0.1000000000 0.1000000000 0.1000000000 0.1000000000 0.1000000000 0.1000000000 0.1000000000 0.1000000000 0.1000000000 0.1000000000 0.1000000000 0.1000000000 0.1000000000 0.1000000000 0.1000000000 0.1000000000 0.1000000000 0.1000000000 0.1000000000 0.1000000000 0.1000000000 0.1000000000 0.1000000000 0.1000000000 0.1000000000 0.1000000000 0.1000000000 0.1000000000 0.1000000000 0.1000000000 0.1000000000 0.1000000000 0.1000000000 0.1000000000 0.1000000000 0.1000000000 0.1000000000 0.1000000000 0.1000000000 0.1000000000 0.1000000000 0.1000000000 0.1000000000 0.1000000000 0.1000000000 0.1000000000 0.1000000000 0.1000000000 0.1000000000 0.1000000000 0.1000000000 0.1000000000 0.1000000000 0.1000000000 0.1000000000 0.1000000000 0.1000000000 0.1000000000 0.1000000000 0.1000000000 0.1000000000 0.1000000000 0.1000000000 0.1000000000 0.1000000000 0.1000000000 0.1000000000 0.1000000000 0.1000000000 0.1000000000 0.1000000000 0.1000000000 0.1000000000 0.1000000000 0.1000000000 0.1000000000 0.1000000000 0.1000000000 0.1000000000 0.1000000000 0.1000000000 0.1000000000 0.1000000000 0.1000000000 0.1000000000 0.1000000000 0.1000000000 0.1000000000 0.1000000000 0.1000000000 0.1000000000 0.1000000000 0.1000000000 0.1000000000 0.1000000000 0.1000000000 0.1000000000 0.1000000000 0.1000000000 0.1000000000 0.1000000000 0.1000000000 0.1000000000 0.1000000000 0.1000000000 0.1000000000 0.1000000000 0.1000000000 0.1000000000 0.1000000000 0.1000000000 0.1000000000 0.1000000000 0.1000000000 0.1000000000 0.1000000000 0.1000000000 0.1000000000 0.1000000000 0.1000000000 0.1000000000 0.1000000000 0.1000000000 0.1000000000 0.1000000000 0.1000000000 0.1000000000 0.1000000000 0.1000000000 0.1000000000 0.1000000000 0.1000000000 0.1000000000 0.1000000000 0.1000000000 0.1000000000 0.1000000000 0.1000000000 0.1000000000 0.1000000000 0.1000000000 0.1000000000 0.1000000000 0.1000000000 0.1000000000 0.1000000000 0.1000000000 0.1000000000 0.1000000000 0.1000000000 0.1000000000 0.1000000000 0.1000000000 0.1000000000 0.1000000000 0.1000000000 0.1000000000 0.1000000000 0.1000000000 0.1000000000 0.1000000000 0.1000000000 0.1000000000 0.1000000000 0.1000000000 0.1000000000 0.1000000000 0.1000000000 0.1000000000 0.1000000000 0.1000000000 0.1000000000 0.1000000000 0.1000000000 0.1000000000 0.1000000000 0.1000000000 0.1000000000 0.1000000000 0.1000000000 0.1000000000 0.1000000000 0.1000000000 0.1000000000 0.1000000000 0.1000000000 0.1000000000 0.1000000000 0.1000000000 0.1000000000 0.1000000000 0.1000000000 0.1000000000 0.1000000000 0.1000000000 0.1000000000 0.1000000000 0.1000000000 0.1000000000 0.1000000000 0.1000000000 0.1000000000 0.1000000000 0.1000000000 0.1000000000 0.1000000000 0.1000000000 0.1000000000 0.1000000000 0.1000000000 0.1000000000 0.1000000000 0.1000000000 0.1000000000 0.1000000000 0.1000000000 0.1000000000 0.1000000000 0.1000000000 0.1000000000 0.1000000000 0.1000000000 0.1000000000 0.1000000000 0.1000000000 0.1000000000 0.1000000000 0.1000000000 0.1000000000 0.1000000000 0.1000000000 0.1000000000 0.1000000000 0.1000000000 0.1000000000 0.1000000000 0.1000000000 0.1000000000 0.1000000000 0.1000000000 0.1000000000 0.1000000000 0.1000000000 0.1000000000 0.1000000000 0.1000000000 0.1000000000 0.1000000000 0.1000000000 0.1000000000 0.1000000000 0.1000000000 0.1000000000 0.1000000000 0.1000000000 0.1000000000 0.1000000000 0.1000000000 0.1000000000 0.1000000000 0.1000000000 0.1000000000 0.1000000000 0.1000000000 0.1000000000 0.1000000000 0.1000000000 0.1000000000 0.1000000000 0.1000000000 0.1000000000 0.1000000000 0.1000000000 0.1000000000 0.1000000000 0.1000000000 0.1000000000 0.1000000000 0.1000000000 0.1000000000 0.1000000000 0.1000000000 0.1000000000 0.1000000000 0.1000000000 0.1000000000 0.1000000000 0.1000000000 0.1000000000 0.1000000000 0.1000000000 0.1000000000 0.1000000000 0.1000000000 0.10000000