<?xml version="1.0"?>
<VTKFile type="UnstructuredGrid" version="0.1" byte_order="LittleEndian">
  <UnstructuredGrid>
    <FieldData>
      <DataArray type="Float32" Name="TIME"  NumberOfTuples="1" format="ascii"> 3.4500000000 </DataArray>
      <DataArray type="Int32"   Name="STEP"  NumberOfTuples="1" format="ascii"> 862500 </DataArray>
    </FieldData>
    <Piece NumberOfPoints="11600" NumberOfCells="11600">
      <Points>
        <DataArray type="Float32" NumberOfComponents="3" format="ascii">
 -0.6404351111 -1.0726322172 -0.0000026431 -0.4405101832 -1.0671529593 -0.0000026268 -0.2405852539 -1.0616737033 -0.0000026156 -0.0406603287 -1.0561944492 -0.0000026255 0.1592646001 -1.0507151964 -0.0000026607 0.3591895277 -1.0452359454 -0.0000027111 0.5591144553 -1.0397566951 -0.0000027700 0.7590393833 -1.0342774456 -0.0000028280 0.9589643073 -1.0287981969 -0.0000028776 1.1588892346 -1.0233189493 -0.0000029055 1.3588141610 -1.0178397030 -0.0000029235 1.5587390875 -1.0123604585 -0.0000029336 1.7586640149 -1.0068812153 -0.0000029378 1.9585889391 -1.0014019731 -0.0000029514 2.1585138669 -0.9959227312 -0.0000029302 2.3584387940 -0.9904434893 -0.0000028927 2.5583637207 -0.9849642471 -0.0000028308 2.7582886479 -0.9794850050 -0.0000027424 2.9582135701 -0.9740057624 -0.0000026024 3.1581384963 -0.9685265198 -0.0000024452 3.3580634212 -0.9630472778 -0.0000022761 3.5579883462 -0.9575680364 -0.0000021017 3.7579132717 -0.9520887956 -0.0000019278 3.9578381923 -0.9466095554 -0.0000017579 4.1577631174 -0.9411303159 -0.0000016077 4.3576880418 -0.9356510777 -0.0000014688 4.5576129663 -0.9301718409 -0.0000013420 4.7575378920 -0.9246926052 -0.0000012273 4.9574628137 -0.9192133698 -0.0000011323 5.1573877402 -0.9137341343 -0.0000010589 5.3573126663 -0.9082548990 -0.0000009977 5.5572375926 -0.9027756642 -0.0000009479 5.7571625196 -0.8972964299 -0.0000009072 5.9570874432 -0.8918171962 -0.0000008763 6.1570123706 -0.8863379630 -0.0000008504 6.3569372975 -0.8808587295 -0.0000008256 6.5568622242 -0.8753794961 -0.0000008022 6.7567871515 -0.8699002634 -0.0000007810 6.9567120752 -0.8644210322 -0.0000007620 7.1566370032 -0.8589418027 -0.0000007425 7.3565619313 -0.8534625744 -0.0000007209 7.5564868603 -0.8479833471 -0.0000006960 7.7564117908 -0.8425041205 -0.0000006671 7.9563367213 -0.8370248930 -0.0000006378 8.1562616534 -0.8315456631 -0.0000006019 8.3561865847 -0.8260664323 -0.0000005677 8.5561115166 -0.8205872001 -0.0000005392 8.7560364494 -0.8151079672 -0.0000005173 8.9559613850 -0.8096287322 -0.0000005111 9.1558863179 -0.8041494946 -0.0000005162 9.3558112497 -0.7986702570 -0.0000005292 9.5557361818 -0.7931910185 -0.0000005471 9.7556611144 -0.7877117784 -0.0000005662 9.9555860497 -0.7822325370 -0.0000005933 10.1555109802 -0.7767532938 -0.0000005925 10.3554359098 -0.7712740504 -0.0000005804 10.5553608389 -0.7657948068 -0.0000005538 10.7552857686 -0.7603155641 -0.0000005123 10.9552106963 -0.7548363226 -0.0000004554 11.1551356264 -0.7493570814 -0.0000003773 11.3550605562 -0.7438778411 -0.0000002876 11.5549854865 -0.7383986007 -0.0000001840 11.7549104187 -0.7329193597 -0.0000000666 11.9548353490 -0.7274401187 0.0000000690 12.1547602825 -0.7219608775 0.0000002308 12.3546852158 -0.7164816355 0.0000004103 12.5546101466 -0.7110023916 0.0000006034 12.7545350767 -0.7055231499 0.0000008004 12.9544600036 -0.7000439096 0.0000009944 13.1543849332 -0.6945646719 0.0000011936 13.3543098590 -0.6890854407 0.0000013895 13.6158726043 -0.6675763050 0.0000000000 13.8158702969 -0.6685368833 0.0000000000 14.0158679894 -0.6694974614 0.0000000000 14.2158656845 -0.6704580389 0.0000000000 14.4158633772 -0.6714186174 0.0000000000 14.6158610709 -0.6723791951 0.0000000000 14.8158587646 -0.6733397735 0.0000000000 15.0158564574 -0.6743003514 0.0000000000 15.2158541520 -0.6752609295 0.0000000000 15.4158518448 -0.6762215077 0.0000000000 15.6158495389 -0.6771820857 0.0000000000 15.8158472325 -0.6781426634 0.0000000000 16.1243156918 -0.5033049615 -0.0000008459 16.3241857719 -0.4960972743 0.0000024945 16.5240558483 -0.4888895856 0.0000005496 16.7239259270 -0.4816818960 -0.0000016261 16.9237960040 -0.4744742062 -0.0000007508 17.1236660797 -0.4672665152 0.0000003900 17.3235361548 -0.4600588221 0.0000012525 17.5234062192 -0.4528511313 -0.0000003091 17.7232762912 -0.4456434486 -0.0000001581 17.9231463636 -0.4384357709 -0.0000010593 18.1230164392 -0.4312280941 -0.0000010537 18.3228865191 -0.4240204149 0.0000007738 18.5227566003 -0.4168127326 -0.0000021988 18.7226266846 -0.4096050425 -0.0000011059 18.9224967674 -0.4023973465 -0.0000020326 19.1223668500 -0.3951896451 -0.0000023231 19.3222369317 -0.3879819402 -0.0000007948 -0.5452178227 -0.8967525202 -0.0000026657 -0.3452928942 -0.8912732638 -0.0000026517 -0.1453679649 -0.8857940081 -0.0000026480 0.0545569642 -0.8803147549 -0.0000026672 0.2544818926 -0.8748355030 -0.0000027043 0.4544068208 -0.8693562521 -0.0000027529 0.6543317486 -0.8638770018 -0.0000028046 0.8542566765 -0.8583977524 -0.0000028496 1.0541816041 -0.8529185046 -0.0000028778 1.2541065313 -0.8474392577 -0.0000028925 1.4540314586 -0.8419600122 -0.0000028977 1.6539563859 -0.8364807681 -0.0000028968 1.8538813131 -0.8310015251 -0.0000028927 2.0538062404 -0.8255222833 -0.0000028768 2.2537311673 -0.8200430415 -0.0000028441 2.4536560941 -0.8145637992 -0.0000027911 2.6535810202 -0.8090845566 -0.0000027128 2.8535059457 -0.8036053140 -0.0000026037 3.0534308709 -0.7981260717 -0.0000024599 3.2533557961 -0.7926468294 -0.0000023003 3.4532807214 -0.7871675877 -0.0000021330 3.6532056464 -0.7816883464 -0.0000019638 3.8531305709 -0.7762091057 -0.0000017986 4.0530554954 -0.7707298661 -0.0000016464 4.2529804202 -0.7652506272 -0.0000015068 4.4529053453 -0.7597713896 -0.0000013792 4.6528302704 -0.7542921533 -0.0000012636 4.8527551953 -0.7488129176 -0.0000011622 5.0526801205 -0.7433336824 -0.0000010815 5.2526050463 -0.7378544473 -0.0000010147 5.4525299726 -0.7323752123 -0.0000009587 5.6524548991 -0.7268959777 -0.0000009124 5.8523798256 -0.7214167435 -0.0000008741 6.0523047521 -0.7159375102 -0.0000008432 6.2522296788 -0.7104582769 -0.0000008149 6.4521546058 -0.7049790435 -0.0000007873 6.6520795326 -0.6994998102 -0.0000007609 6.8520044597 -0.6940205779 -0.0000007352 7.0519293873 -0.6885413478 -0.0000007096 7.2518543154 -0.6830621192 -0.0000006831 7.4517792444 -0.6775828916 -0.0000006545 7.6517041739 -0.6721036645 -0.0000006235 7.8516291040 -0.6666244375 -0.0000005903 8.0515540346 -0.6611452090 -0.0000005548 8.2514789651 -0.6556659791 -0.0000005188 8.4514038961 -0.6501867477 -0.0000004865 8.6513288273 -0.6447075152 -0.0000004605 8.8512537599 -0.6392282818 -0.0000004438 9.0511786926 -0.6337490453 -0.0000004402 9.2511036243 -0.6282698077 -0.0000004447 9.4510285558 -0.6227905697 -0.0000004539 9.6509534871 -0.6173113305 -0.0000004649 9.8508784194 -0.6118320901 -0.0000004748 10.0508033508 -0.6063528470 -0.0000004738 10.2507282806 -0.6008736038 -0.0000004595 10.4506532101 -0.5953943605 -0.0000004325 10.6505781395 -0.5899151174 -0.0000003918 10.8505030690 -0.5844358751 -0.0000003367 11.0504279989 -0.5789566341 -0.0000002630 11.2503529289 -0.5734773934 -0.0000001755 11.4502778592 -0.5679981535 -0.0000000750 11.6502027898 -0.5625189125 0.0000000393 11.8501277218 -0.5570396712 0.0000001694 12.0500526540 -0.5515604310 0.0000003227 12.2499775864 -0.5460811892 0.0000004947 12.4499025184 -0.5406019462 0.0000006848 12.6498274489 -0.5351227035 0.0000008834 12.8497523800 -0.5296434614 0.0000010844 13.0496773103 -0.5241642228 0.0000012859 13.2496022416 -0.5186849873 0.0000014868 13.5167056404 -0.4938929360 0.0000000000 13.7167033349 -0.4948535124 0.0000000000 13.9167010284 -0.4958140902 0.0000000000 14.1166987220 -0.4967746687 0.0000000000 14.3166964155 -0.4977352466 0.0000000000 14.5166941090 -0.4986958248 0.0000000000 14.7166918024 -0.4996564030 0.0000000000 14.9166894958 -0.5006169809 0.0000000000 15.1166871897 -0.5015775594 0.0000000000 15.3166848831 -0.5025381370 0.0000000000 15.5166825769 -0.5034987149 0.0000000000 15.7166802678 -0.5044592951 0.0000000000 16.0181386149 -0.3338162385 0.0000007483 16.2180086932 -0.3266085527 0.0000018792 16.4178787721 -0.3194008635 0.0000013286 16.6177488498 -0.3121931734 0.0000007717 16.8176189260 -0.3049854837 0.0000008813 17.0174890013 -0.2977777930 0.0000000633 17.2173590751 -0.2905701009 -0.0000008495 17.4172291478 -0.2833624074 -0.0000000940 17.6170992207 -0.2761547214 0.0000001387 17.8169692941 -0.2689470407 0.0000002980 18.0168393682 -0.2617393642 -0.0000010995 18.2167094440 -0.2545316870 0.0000002832 18.4165795218 -0.2473240065 -0.0000008239 18.6164496001 -0.2401163209 -0.0000020662 18.8163196781 -0.2329086285 -0.0000009365 19.0161897569 -0.2257009307 -0.0000016374 19.2160598370 -0.2184932296 -0.0000006717 19.4159299180 -0.2112855247 -0.0000007897 -0.6499254624 -0.7263520793 -0.0000027006 -0.4500005331 -0.7208728229 -0.0000026855 -0.2500756022 -0.7153935669 -0.0000026760 -0.0501506739 -0.7099143125 -0.0000026814 0.1497742563 -0.7044350600 -0.0000027063 0.3496991855 -0.6989558084 -0.0000027439 0.5496241146 -0.6934765579 -0.0000027878 0.7495490439 -0.6879973081 -0.0000028293 0.9494739710 -0.6825180590 -0.0000028575 1.1493989000 -0.6770388119 -0.0000028692 1.3493238285 -0.6715595657 -0.0000028693 1.5492487567 -0.6660803208 -0.0000028610 1.7491736853 -0.6606010773 -0.0000028474 1.9490986113 -0.6551218343 -0.0000028284 2.1490235396 -0.6496425926 -0.0000027962 2.3489484670 -0.6441633505 -0.0000027490 2.5488733939 -0.6386841080 -0.0000026806 2.7487983207 -0.6332048653 -0.0000025882 2.9487232441 -0.6277256226 -0.0000024638 3.1486481704 -0.6222463805 -0.0000023162 3.3485730963 -0.6167671385 -0.0000021575 3.5484980222 -0.6112878970 -0.0000019942 3.7484229484 -0.6058086560 -0.0000018323 3.9483478717 -0.6003294155 -0.0000016794 4.1482727978 -0.5948501763 -0.0000015398 4.3481977237 -0.5893709381 -0.0000014118 4.5481226496 -0.5838917011 -0.0000012958 4.7480475760 -0.5784124650 -0.0000011917 4.9479724992 -0.5729332295 -0.0000011042 5.1478974260 -0.5674539945 -0.0000010325 5.3478223527 -0.561
[...]
      <PointData Scalars="radius">
        <DataArray type="Float32" Name="radius" format="ascii">
 0.1000000000 0.1000000000 0.1000000000 0.1000000000 0.1000000000 0.1000000000 0.1000000000 0.1000000000 0.1000000000 0.1000000000 0.1000000000 0.1000000000 0.1000000000 0.1000000000 0.1000000000 0.1000000000 0.1000000000 0.1000000000 0.1000000000 0.1000000000 0.1000000000 0.1000000000 0.1000000000 0.1000000000 0.1000000000 0.1000000000 0.1000000000 0.1000000000 0.1000000000 0.1000000000 0.1000000000 0.1000000000 0.1000000000 0.1000000000 0.1000000000 0.1000000000 0.1000000000 0.1000000000 0.1000000000 0.1000000000 0.1000000000 0.1000000000 0.1000000000 0.1000000000 0.1000000000 0.1000000000 0.1000000000 0.1000000000 0.1000000000 0.1000000000 0.1000000000 0.1000000000 0.1000000000 0.1000000000 0.1000000000 0.1000000000 0.1000000000 0.1000000000 0.1000000000 0.1000000000 0.1000000000 0.1000000000 0.1000000000 0.1000000000 0.1000000000 0.1000000000 0.1000000000 0.1000000000 0.1000000000 0.1000000000 0.1000000000 0.1000000000 0.1000000000 0.1000000000 0.1000000000 0.1000000000 0.1000000000 0.1000000000 0.1000000000 0.1000000000 0.1000000000 0.1000000000 0.1000000000 0.1000000000 0.1000000000 0.1000000000 0.1000000000 0.1000000000 0.1000000000 0.1000000000 0.1000000000 0.1000000000 0.1000000000 0.1000000000 0.1000000000 0.1000000000 0.1000000000 0.1000000000 0.1000000000 0.1000000000 0.1000000000 0.1000000000 0.1000000000 0.1000000000 0.1000000000 0.1000000000 0.1000000000 0.1000000000 0.1000000000 0.1000000000 0.1000000000 0.1000000000 0.1000000000 0.1000000000 0.1000000000 0.1000000000 0.1000000000 0.1000000000 0.1000000000 0.1000000000 0.1000000000 0.1000000000 0.1000000000 0.1000000000 0.1000000000 0.1000000000 0.1000000000 0.1000000000 0.1000000000 0.1000000000 0.1000000000 0.1000000000 0.1000000000 0.1000000000 0.1000000000 0.1000000000 0.1000000000 0.1000000000 0.1000000000 0.1000000000 0.1000000000 0.1000000000 0.1000000000 0.1000000000 0.1000000000 0.1000000000 0.1000000000 0.1000000000 0.1000000000 0.1000000000 0.1000000000 0.1000000000 0.1000000000 0.1000000000 0.1000000000 0.1000000000 0.1000000000 0.1000000000 0.1000000000 0.1000000000 0.1000000000 0.1000000000 0.1000000000 0.1000000000 0.1000000000 0.1000000000 0.1000000000 0.1000000000 0.1000000000 0.1000000000 0.1000000000 0.1000000000 0.1000000000 0.1000000000 0.1000000000 0.1000000000 0.1000000000 0.1000000000 0.1000000000 0.1000000000 0.1000000000 0.1000000000 0.1000000000 0.1000000000 0.1000000000 0.1000000000 0.1000000000 0.1000000000 0.1000000000 0.1000000000 0.1000000000 0.1000000000 0.1000000000 0.1000000000 0.1000000000 0.1000000000 0.1000000000 0.1000000000 0.1000000000 0.1000000000 0.1000000000 0.1000000000 0.1000000000 0.1000000000 0.1000000000 0.1000000000 0.1000000000 0.1000000000 0.1000000000 0.1000000000 0.1000000000 0.1000000000 0.1000000000 0.1000000000 0.1000000000 0.1000000000 0.1000000000 0.1000000000 0.1000000000 0.1000000000 0.1000000000 0.1000000000 0.1000000000 0.1000000000 0.1000000000 0.1000000000 0.1000000000 0.1000000000 0.1000000000 0.1000000000 0.1000000000 0.1000000000 0.1000000000 0.1000000000 0.1000000000 0.1000000000 0.1000000000 0.1000000000 0.1000000000 0.1000000000 0.1000000000 0.1000000000 0.1000000000 0.1000000000 0.1000000000 0.1000000000 0.1000000000 0.1000000000 0.1000000000 0.1000000000 0.1000000000 0.1000000000 0.1000000000 0.1000000000 0.1000000000 0.1000000000 0.1000000000 0.1000000000 0.1000000000 0.1000000000 0.1000000000 0.1000000000 0.1000000000 0.1000000000 0.1000000000 0.1000000000 0.1000000000 0.1000000000 0.1000000000 0.1000000000 0.1000000000 0.1000000000 0.1000000000 0.1000000000 0.1000000000 0.1000000000 0.1000000000 0.1000000000 0.1000000000 0.1000000000 0.1000000000 0.1000000000 0.1000000000 0.1000000000 0.1000000000 0.1000000000 0.1000000000 0.1000000000 0.1000000000 0.1000000000 0.1000000000 0.1000000000 0.1000000000 0.1000000000 0.1000000000 0.1000000000 0.1000000000 0.1000000000 0.1000000000 0.1000000000 0.1000000000 0.1000000000 0.1000000000 0.1000000000 0.1000000000 0.1000000000 0.1000000000 0.1000000000 0.1000000000 0.1000000000 0.1000000000 0.1000000000 0.1000000000 0.1000000000 0.1000000000 0.1000000000 0.1000000000 0.1000000000 0.1000000000 0.1000000000 0.1000000000 0.1000000000 0.1000000000 0.1000000000 0.1000000000 0.1000000000 0.1000000000 0.1000000000 0.1000000000 0.1000000000 0.1000000000 0.1000000000 0.1000000000 0.1000000000 0.1000000000 0.1000000000 0.1000000000 0.1000000000 0.1000000000 0.1000000000 0.1000000000 0.1000000000 0.1000000000 0.1000000000 0.1000000000 0.1000000000 0.1000000000 0.1000000000 0.1000000000 0.1000000000 0.1000000000 0.1000000000 0.1000000000 0.1000000000 0.1000000000 0.1000000000 0.1000000000 0.1000000000 0.1000000000 0.1000000000 0.1000000000 0.1000000000 0.1000000000 0.1000000000 0.1000000000 0.1000000000 0.1000000000 0.1000000000 0.1000000000 0.1000000000 0.1000000000 0.1000000000 0.1000000000 0.1000000000 0.1000000000 0.1000000000 0.1000000000 0.1000000000 0.1000000000 0.1000000000 0.1000000000 0.1000000000 0.1000000000 0.1000000000 0.1000000000 0.1000000000 0.1000000000 0.1000000000 0.1000000000 0.1000000000 0.1000000000 0.1000000000 0.1000000000 0.1000000000 0.1000000000 0.1000000000 0.1000000000 0.1000000000 0.1000000000 0.1000000000 0.1000000000 0.1000000000 0.1000000000 0.1000000000 0.1000000000 0.1000000000 0.1000000000 0.1000000000 0.1000000000 0.1000000000 0.1000000000 0.1000000000 0.1000000000 0.1000000000 0.1000000000 0.1000000000 0.1000000000 0.1000000000 0.1000000000 0.1000000000 0.1000000000 0.1000000000 0.1000000000 0.1000000000 0.1000000000 0.1000000000 0.1000000000 0.1000000000 0.1000000000 0.1000000000 0.1000000000 0.1000000000 0.1000000000 0.1000000000 0.1000000000 0.1000000000 0.1000000000 0.1000000000 0.1000000000 0.1000000000 0.1000000000 0.1000000000 0.1000000000 0.1000000000 0.1000000000 0.1000000000 0.1000000000 0.1000000000 0.1000000000 0.1000000000 0.1000000000 0.1000000000 0.1000000000 0.1000000000 0.1000000000 0.1000000000 0.1000000000 0.1000000000 0.1000000000 0.1000000000 0.1000000000 0.1000000000 0.1000000000 0.1000000000 0.1000000000 0.1000000000 0.1000000000 0.1000000000 0.1000000000 0.1000000000 0.1000000000 0.1000000000 0.1000000000 0.1000000000 0.1000000000 0.1000000000 0.1000000000 0.1000000000 0.1000000000 0.1000000000 0.1000000000 0.1000000000 0.1000000000 0.1000000000 0.1000000000 0.1000000000 0.1000000000 0.1000000000 0.1000000000 0.1000000000 0.1000000000 0.1000000000 0.1000000000 0.1000000000 0.1000000000 0.1000000000 0.1000000000 0.1000000000 0.1000000000 0.1000000000 0.1000000000 0.1000000000 0.1000000000 0.1000000000 0.1000000000 0.1000000000 0.1000000000 0.1000000000 0.1000000000 0.1000000000 0.1000000000 0.1000000000 0.1000000000 0.1000000000 0.1000000000 0.1000000000 0.1000000000 0.1000000000 0.1000000000 0.1000000000 0.1000000000 0.1000000000 0.1000000000 0.1000000000 0.1000000000 0.1000000000 0.1000000000 0.1000000000 0.1000000000 0.1000000000 0.1000000000 0.1000000000 0.1000000000 0.1000000000 0.1000000000 0.1000000000 0.1000000000 0.1000000000 0.1000000000 0.1000000000 0.1000000000 0.1000000000 0.1000000000 0.1000000000 0.1000000000 0.1000000000 0.1000000000 0.1000000000 0.1000000000 0.1000000000 0.1000000000 0.1000000000 0.1000000000 0.1000000000 0.1000000000 0.1000000000 0.1000000000 0.1000000000 0.1000000000 0.1000000000 0.1000000000 0.1000000000 0.1000000000 0.1000000000 0.1000000000 0.1000000000 0.1000000000 0.1000000000 0.1000000000 0.1000000000 0.1000000000 0.1000000000 0.1000000000 0.1000000000 0.1000000000 0.1000000000 0.1000000000 0.1000000000 0.1000000000 0.1000000000 0.1000000000 0.1000000000 0.1000000000 0.1000000000 0.1000000000 0.1000000000 0.1000000000 0.1000000000 0.1000000000 0.1000000000 0.1000000000 0.1000000000 0.1000000000 0.1000000000 0.1000000000 0.1000000000 0.1000000000 0.1000000000 0.1000000000 0.1000000000 0.1000000000 0.1000000000 0.1000000000 0.1000000000 0.1000000000 0.1000000000 0.1000000000 0.1000000000 0.1000000000 0.1000000000 0.1000000000 0.1000000000 0.1000000000 0.1000000000 0.1000000000 0.1000000000 0.1000000000 0.1000000000 0.1000000000 0.1000000000 0.1000000000 0.1000000000 0.1000000000 0.1000000000 0.1000000000 0.1000000000 0.1000000000 0.1000000000 0.1000000000 0.1000000000 0.1000000000 0.1000000000 0.1000000000 0.1000000000 0.1000000000 0.1000000000 0.1000000000 0.1000000000 0.1000000000 0.1000000000 0.1000000000 0.1000000000 0.1000000000 0.1000000000 0.1000000000 0.1000000000 0.1000000000 0.1000000000 0.1000000000 0.1000000000 0.1000000000 0.1000000000 0.1000000000 0.1000000000 0.1000000000 0.1000000000 0.1000000000 0.1000000000 0.1000000000 0.1000000000 0.1000000000 0.1000000000 0.1000000000 0.1000000000 0.1000000000 0.1000000000 0.1000000000 0.1000000000 0.1000000000 0.1000000000 0.1000000000 0.1000000000 0.1000000000 0.1000000000 0.1000000000 0.1000000000 0.1000000000 0.1000000000 0.1000000000 0.1000000000 0.1000000000 0.1000000000 0.1000000000 0.1000000000 0.1000000000 0.1000000000 0.1000000000 0.1000000000 0.1000000000 0.1000000000 0.1000000000 0.1000000000 0.1000000000 0.1000000000 0.1000000000 0.1000000000 0.1000000000 0.1000000000 0.1000000000 0.1000000000 0.1000000000 0.1000000000 0.1000000000 0.1000000000 0.1000000000 0.1000000000 0.1000000000 0.1000000000 0.1000000000 0.1000000000 0.1000000000 0.1000000000 0.1000000000 0.1000000000 0.1000000000 0.1000000000 0.1000000000 0.1000000000 0.1000000000 0.1000000000 0.1000000000 0.1000000000 0.1000000000 0.1000000000 0.1000000000 0.1000000000 0.1000000000 0.1000000000 0.1000000000 0.1000000000 0.1000000000 0.1000000000 0.1000000000 0.1000000000 0.1000000000 0.1000000000 0.1000000000 0.1000000000 0.1000000000 0.1000000000 0.1000000000 0.1000000000 0.1000000000 0.1000000000 0.1000000000 0.1000000000 0.1000000000 0.1000000000 0.1000000000 0.1000000000 0.1000000000 0.1000000000 0.1000000000 0.1000000000 0.1000000000 0.1000000000 0.1000000000 0.1000000000 0.1000000000 0.1000000000 0.1000000000 0.1000000000 0.1000000000 0.1000000000 0.1000000000 0.1000000000 0.1000000000 0.1000000000 0.1000000000 0.1000000000 0.1000000000 0.1000000000 0.1000000000 0.1000000000 0.1000000000 0.1000000000 0.1000000000 0.1000000000 0.1000000000 0.1000000000 0.1000000000 0.1000000000 0.1000000000 0.1000000000 0.1000000000 0.1000000000 0.1000000000 0.1000000000 0.1000000000 0.1000000000 0.1000000000 0.1000000000 0.1000000000 0.1000000000 0.1000000000 0.1000000000 0.1000000000 0.1000000000 0.1000000000 0.1000000000 0.1000000000 0.1000000000 0.1000000000 0.1000000000 0.1000000000 0.1000000000 0.1000000000 0.1000000000 0.1000000000 0.1000000000 0.1000000000 0.1000000000 0.1000000000 0.1000000000 0.1000000000 0.1000000000 0.1000000000 0.1000000000 0.1000000000 0.1000000000 0.1000000000 0.1000000000 0.1000000000 0.1000000000 0.1000000000 0.1000000000 0.1000000000 0.1000000000 0.1000000000 0.1000000000 0.1000000000 0.1000000000 0.1000000000 0.1000000000 0.1000000000 0.1000000000 0.1000000000 0.1000000000 0.1000000000 0.1000000000 0.1000000000 0.1000000000 0.1000000000 0.1000000000 0.1000000000 0.1000000000 0.1000000000 0.1000000000 0.1000000000 0.1000000000 0.1000000000 0.1000000000 0.1000000000 0.1000000000 0.1000000000 0.1000000000 0.1000000000 0.1000000000 0.1000000000 0.1000000000 0.1000000000 0.1000000000 0.1000000000 0.1000000000 0.1000000000 0.1000000000 0.1000000000 0.1000000000 0.1000000000 0.1000000000 0.1000000000 0.1000000000 0.1000000000 0.1000000000 0.1000000000 0.1000000000 0.1000000000 0.1000000000 0.1000000000 0.1000000000 0.1000000000 0.1000000000 0.1000000000 0.1000000000 0.1000000000 0.1000000000 0.1000000000 0.1000000000 0.1000000000 0.1000000000 0.1000000000 0.1000000000 0.1000000000 0.1000000000 0.1000000000 0.1000000000 0.1000000000 0.1000000000 0.1000000000 0.1000000000 0.1000000000 0.1000000000 0.1000000000 0.1000000000 0.1000000000 0.1000000000 0.1000000000 0.1000000000 0.1000000000 0.1000000000 0.1000000000 0.1000000000 0.1000000000 0.1000000000 0.1000000000 0.1000000000 0.1000000000 0.1000000000 0.1000000000 0.1000000000 0.1000000000 0.1000000000 0.1000000000 0.1000000000 0.1000000000 0.1000000000 0.1000000000 0.1000000000 0.1000000000 0.1000000000 0.1000000000 0.1000000000 0.1000000000 0.1000000000 0.1000000000 0.1000000000 0.1000000000 0.1000000000 0.1000000000 0.1000000000 0.1000000000 0.1000000000 0.1000000000 0.1000000000 0.1000000000 0.1000000000 0.1000000000 0.1000000000 0.1000000000 0.1000000000 0.1000000000 0.1000000000 0.1000000000 0.1000000000 0.1000000000 0.1000000000 0.1000000000 0.1000000000 0.1000000000 0.1000000000 0.1000000000 0.1000000000 0.1000000000 0.1000000000 0.1000000000 0.1000000000 0.1000000000 0.1000000000 0.1000000000 0.1000000000 0.1000000000 0.1000000000 0.1000000000 0.1000000000 0.1000000000 0.1000000000 0.1000000000 0.1000000000 0.1000000000 0.1000000000 0.1000000000 0.1000000000 0.1000000000 0.1000000000 0.1000000000 0.1000000000 0.1000000000 0.1000000000 0.1000000000 0.1000000000 0.1000000000 0.1000000000 0.1000000000 0.1000000000 0.1000000000 0.1000000000 0.1000000000 0.1000000000 0.1000000000 0.1000000000 0.1000000000 0.1000000000 0.1000000000 0.1000000000 0.1000000000 0.1000000000 0.1000000000 0.1000000000 0.1000000000 0.1000000000 0.1000000000 0.1000000000 0.1000000000 0.1000000000 0.1000000000 0.1000000000 0.1000000000 0.1000000000 0.1000000000 0.1000000000 0.1000000000 0.1000000000 0.1000000000 0.1000000000 0.1000000000 0.1000000000 0.1000000000 0.1000000000 0.1000000000 0.1000000000 0.1000000000 0.1000000000 0.1000000000 0.1000000000 0.1000000000 0.1000000000 0.1000000000 0.1000000000 0.1000000000 0.1000000000 0.1000000000 0.1000000000 0.1000000000 0.1000000000 0.1000000000 0.1000000000 0.1000000000 0.1000000000 0.1000000000 0.1000000000 0.1000000000 0.1000000000 0.1000000000 0.1000000000 0.1000000000 0.1000000000 0.1000000000 0.1000000000 0.1000000000 0.1000000000 0.1000000000 0.1000000000 0.1000000000 0.1000000000 0.1000000000 0.1000000000 0.1000000000 0.1000000000 0.1000000000 0.1000000000 0.1000000000 0.1000000000 0.1000000000 0.1000000000 0.1000000000 0.1000000000 0.1000000000 0.1000000000 0.1000000000 0.1000000000 0.1000000000 0.1000000000 0.1000000000 0.1000000000 0.1000000000 0.1000000000 0.1000000000 0.1000000000 0.1000000000 0.1000000000 0.1000000000 0.1000000000 0.1000000000 0.1000000000 0.1000000000 0.1000000000 0.1000000000 0.1000000000 0.1000000000 0.1000000000 0.1000000000 0.1000000000 0.1000000000 0.1000000000 0.1000000000 0.1000000000 0.1000000000 0.1000000000 0.1000000000 0.1000000000 0.1000000000 0.1000000000 0.1000000000 0.1000000000 0.1000000000 0.1000000000 0.1000000000 0.1000000000 0.1000000000 0.1000000000 0.1000000000 0.1000000000 0.1000000000 0.1000000000 0.1000000000 0.1000000000 0.1000000000 0.1000000000 0.1000000000 0.1000000000 0.1000000000 0.1000000000 0.1000000000 0.1000000000 0.1000000000 0.1000000000 0.1000000000 0.1000000000 0.1000000000 0.1000000000 0.1000000000 0.1000000000 0.1000000000 0.1000000000 0.1000000000 0.1000000000 0.1000000000 0.1000000000 0.1000000000 0.1000000000 0.1000000000 0.1000000000 0.1000000000 0.1000000000 0.1000000000 0.1000000000 0.1000000000 0.1000000000 0.1000000000 0.1000000000 0.1000000000 0.1000000000 0.1000000000 0.1000000000 0.1000000000 0.1000000000 0.1000000000 0.1000000000 0.1000000000 0.1000000000 0.1000000000 0.1000000000 0.1000000000 0.1000000000 0.1000000000 0.1000000000 0.1000000000 0.1000000000 0.1000000000 0.1000000000 0.1000000000 0.1000000000 0.1000000000 0.1000000000 0.1000000000 0.1000000000 0.1000000000 0.1000000000 0.1000000000 0.1000000000 0.1000000000 0.1000000000 0.1000000000 0.1000000000 0.1000000000 0.1000000000 0.1000000000 0.1000000000 0.1000000000 0.1000000000 0.1000000000 0.1000000000 0.1000000000 0.1000000000 0.1000000000 0.1000000000 0.1000000000 0.1000000000 0.1000000000 0.1000000000 0.1000000000 0.1000000000 0.1000000000 0.1000000000 0.1000000000 0.1000000000 0.1000000000 0.1000000000 0.1000000000 0.1000000000 0.1000000000 0.1000000000 0.1000000000 0.1000000000 0.1000000000 0.1000000000 0.1000000000 0.1000000000 0.1000000000 0.1000000000 0.1000000000 0.1000000000 0.1000000000 0.1000000000 0.1000000000 0.1000000000 0.1000000000 0.1000000000 0.1000000000 0.1000000000 0.1000000000 0.1000000000 0.1000000000 0.1000000000 0.1000000000 0.1000000000 0.1000000000 0.1000000000 0.1000000000 0.1000000000 0.1000000000 0.1000000000 0.1000000000 0.1000000000 0.1000000000 0.1000000000 0.1000000000 0.1000000000 0.1000000000 0.1000000000 0.1000000000 0.1000000000 0.1000000000 0.1000000000 0.1000000000 0.1000000000 0.1000000000 0.1000000000 0.1000000000 0.1000000000 0.1000000000 0.1000000000 0.1000000000 0.1000000000 0.1000000000 0.1000000000 0.1000000000 0.1000000000 0.1000000000 0.1000000000 0.1000000000 0.1000000000 0.1000000000 0.1000000000 0.1000000000 0.1000000000 0.1000000000 0.1000000000 0.1000000000 0.1000000000 0.1000000000 0.1000000000 0.1000000000 0.1000000000 0.1000000000 0.1000000000 0.1000000000 0.1000000000 0.1000000000 0.1000000000 0.1000000000 0.1000000000 0.1000000000 0.1000000000 0.1000000000 0.1000000000 0.1000000000 0.1000000000 0.1000000000 0.1000000000 0.1000000000 0.1000000000 0.1000000000 0.1000000000 0.1000000000 0.1000000000 0.1000000000 0.1000000000 0.1000000000 0.1000000000 0.1000000000 0.1000000000 0.1000000000 0.1000000000 0.1000000000 0.1000000000 0.1000000000 0.1000000000 0.1000000000 0.1000000000 0.1000000000 0.1000000000 0.1000000000 0.1000000000 0.1000000000 0.1000000000 0.1000000000 0.1000000000 0.1000000000 0.1000000000 0.1000000000 0.1000000000 0.1000000000 0.1000000000 0.1000000000 0.1000000000 0.1000000000 0.1000000000 0.1000000000 0.1000000000 0.1000000000 0.1000000000 0.1000000000 0.1000000000 0.1000000000 0.1000000000 0.1000000000 0.1000000000 0.1000000000 0.1000000000 0.1000000000 0.1000000000 0.1000000000 0.1000000000 0.1000000000 0.1000000000 0.1000000000 0.1000000000 0.1000000000 0.1000000000 0.1000000000 0.1000000000 0.1000000000 0.1000000000 0.1000000000 0.1000000000 0.1000000000 0.1000000000 0.1000000000 0.1000000000 0.1000000000 0.1000000000 0.1000000000 0.1000000000 0.1000000000 0.1000000000 0.1000000000 0.1000000000 0.1000000000 0.1000000000 0.1000000000 0.1000000000 0.1000000000 0.1000000000 0.1000000000 0.1000000000 0.1000000000 0.1000000000 0.1000000000 0.1000000000 0.1000000000 0.1000000000 0.1000000000 0.1000000000 0.1000000000 0.1000000000 0.1000000000 0.1000000000 0.1000000000 0.1000000000 0.1000000000 0.1000000000 0.1000000000 0.1000000000 0.1000000000 0.1000000000 0.1000000000 0.1000000000 0.1000000000 0.1000000000 0.1000000000 0.1000000000 0.1000000000 0.1000000000 0.1000000000 0.1000000000 0.1000000000 0.1000000000 0.1000000000 0.1000000000 0.1000000000 0.1000000000 0.1000000000 0.1000000000 0.1000000000 0.1000000000 0.1000000000 0.1000000000 0.1000000000 0.1000000000 0.1000000000 0.1000000000 0.1000000000 0.1000000000 0.1000000000 0.1000000000 0.1000000000 0.1000000000 0.1000000000 0.1000000000 0.1000000000 0.1000000000 0.1000000000 0.1000000000 0.1000000000 0.1000000000 0.1000000000 0.1000000000 0.1000000000 0.1000000000 0.1000000000 0.1000000000 0.1000000000 0.1000000000 0.1000000000 0.1000000000 0.1000000000 0.1000000000 0.1000000000 0.1000000000 0.1000000000 0.1000000000 0.1000000000 0.1000000000 0.1000000000 0.1000000000 0.1000000000 0.1000000000 0.1000000000 0.1000000000 0.1000000000 0.1000000000 0.1000000000 0.1000000000 0.1000000000 0.1000000000 0.1000000000 0.1000000000 0.1000000000 0.1000000000 0.1000000000 0.1000000000 0.1000000000 0.1000000000 0.1000000000 0.1000000000 0.1000000000 0.1000000000 0.1000000000 0.1000000000 0.1000000000 0.1000000000 0.1000000000 0.1000000000 0.1000000000 0.1000000000 0.1000000000 0.1000000000 0.1000000000 0.1000000000 0.1000000000 0.1000000000 0.1000000000 0.1000000000 0.1000000000 0.1000000000 0.1000000000 0.1000000000 0.1000000000 0.1000000000 0.1000000000 0.1000000000 0.1000000000 0.1000000000 0.1000000000 0.1000000000 0.1000000000 0.1000000000 0.1000000000 0.1000000000 0.10000000