<?xml version="1.0"?>
<VTKFile type="UnstructuredGrid" version="0.1" byte_order="LittleEndian">
  <UnstructuredGrid>
    <FieldData>
      <DataArray type="Float32" Name="TIME"  NumberOfTuples="1" format="ascii"> 0.7500000000 </DataArray>
      <DataArray type="Int32"   Name="STEP"  NumberOfTuples="1" format="ascii"> 187500 </DataArray>
    </FieldData>
    <Piece NumberOfPoints="28" NumberOfCells="28">
      <Points>
        <DataArray type="Float32" NumberOfComponents="3" format="ascii">
 -0.2135346025 9.5438337081 0.0000000000 -0.1881137594 9.5983488819 -0.0629098925 -0.2232965596 9.5228991235 0.0241582735 -0.2135346025 9.5438337081 0.0000000002 -0.1126456914 9.8554590862 -0.0000691987 -0.1066092354 9.9244560933 -0.0725066700 -0.1138649159 9.8415232858 0.0145614960 -0.1126456914 9.8554590862 0.0000000000 -0.1151922470 10.1736481777 0.0000000000 -0.1151922470 10.1736481777 0.0000000000 -0.1192599103 10.1888289039 0.0000000000 -0.1388638122 10.2619916618 -0.0792179399 -0.1094869907 10.1084368004 0.1040771075 -0.1151922470 10.1736481777 0.0000000000 -0.1173172309 10.1815787256 0.0078502261 -0.1192599103 10.1888289039 0.0000000000 -0.1603073792 10.3420201433 0.0000000000 -0.1603073792 10.3420201433 -0.0010679993 -0.1755316522 10.3746687020 -0.0010679993 -0.2032180253 10.4340423208 -0.0695844823 -0.1460231599 10.2887107111 0.1138971611 -0.1603073792 10.3420201433 0.0000000000 -0.1680352251 10.3585925624 0.0174836837 -0.1755316522 10.3746687020 0.0000000000 -0.2889951722 10.5785775259 0.0000000000 -0.3124386729 10.6120583147 -0.0358683024 -0.2646886655 10.5438642368 0.0511998636 -0.2889951722 10.5785775259 0.0068789708
        </DataArray>
      </Points>
      <Cells>
        <DataArray type="Int32" Name="connectivity" format="ascii">
 0 1 2 3 4 5 6 7 8 9 10 11 12 13 14 15 16 17 18 19 20 21 22 23 24 25 26 27
        </DataArray>
        <DataArray type="Int32" Name="offsets" format="ascii">
 1 2 3 4 5 6 7 8 9 10 11 12 13 14 15 16 17 18 19 20 21 22 23 24 25 26 27 28
        </DataArray>
        <DataArray type="UInt8" Name="types" format="ascii">
 1 1 1 1 1 1 1 1 1 1 1 1 1 1 1 1 1 1 1 1 1 1 1 1 1 1 1 1
        </DataArray>
      </Cells>
      <PointData Scalars="overlap">
        <DataArray type="Float32" Name="overlap" format="ascii">
 -0.0175741399 -0.0462855304 -0.0222327828 -0.0175741399 -0.0016355465 -0.0427375120 -0.0036317257 -0.0016355700 -0.0081153753 -0.0081153753 -0.0069669764 -0.0531486799 -0.0768168136 -0.0081153753 -0.0075169716 -0.0069669764 -0.0166041795 -0.0165992884 -0.0108949375 -0.0458902240 -0.0894723120 -0.0166041795 -0.0138265821 -0.0109000802 -0.0324153620 -0.0448599260 -0.0457623686 -0.0322365602
        </DataArray>
        <DataArray type="Float32" Name="contact normal" NumberOfComponents="3" format="ascii">
 0.9063077870 -0.4226182617 0.0000000013 0.5546516822 -0.7123339688 0.4300486348 0.9516294486 -0.2352428979 -0.1976415228 0.9063077870 -0.4226182617 -0.0000000000 0.9961946981 -0.0871557427 -0.0000000000 0.6670449502 -0.5454426628 0.5074872767 0.9887707299 0.0489973402 -0.1411796879 0.9961944672 -0.0871557225 -0.0006808515 0.9180424288 0.3964821546 0.0000000000 0.9180424288 0.3964821546 0.0000000000 0.9659258263 0.2588190451 0.0000000000 0.8026583517 -0.2969510884 0.5172616567 0.5290743770 0.6112382192 -0.5886154457 0.9180424288 0.3964821546 0.0000000000 0.9429161197 0.3249279483 -0.0730138316 0.9659258263 0.2588190451 -0.0000000000 0.7313689173 0.6819205351 -0.0091591855 0.7313995967 0.6819491403 0.0000000000 0.9063077870 0.4226182617 0.0000000000 0.8786834031 -0.0857315359 0.4696441002 0.3747062165 0.7010217761 -0.6067649634 0.7313689173 0.6819205351 -0.0091591855 0.8171071875 0.5529671914 -0.1629819909 0.9062657595 0.4225986640 -0.0096302844 0.8180459350 0.5728019303 0.0519499453 0.9096052509 0.2924686439 0.2950938495 0.5763856801 0.7585021093 -0.3040626547 0.8191520443 0.5735764364 0.0000000000
        </DataArray>
        <DataArray type="Float32" Name="contact force" NumberOfComponents="3" format="ascii">
 0.0000000000 0.0000000000 0.0000000000 0.0000000000 0.0000000000 0.0000000000 0.0000000000 0.0000000000 0.0000000000 0.0000000000 0.0000000000 0.0000000000 0.0000000000 0.0000000000 0.0000000000 0.0000000000 0.0000000000 0.0000000000 0.0000000000 0.0000000000 0.0000000000 0.0000000000 0.0000000000 0.0000000000 0.0000000000 0.0000000000 0.0000000000 0.0000000000 0.0000000000 0.0000000000 0.0000000000 0.0000000000 0.0000000000 0.0000000000 0.0000000000 0.0000000000 0.0000000000 0.0000000000 0.0000000000 0.0000000000 0.0000000000 0.0000000000 0.0000000000 0.0000000000 0.0000000000 0.0000000000 0.0000000000 0.0000000000 0.0000000000 0.0000000000 0.0000000000 0.0000000000 0.0000000000 0.0000000000 0.0000000000 0.0000000000 0.0000000000 0.0000000000 0.0000000000 0.0000000000 0.0000000000 0.0000000000 0.0000000000 0.0000000000 0.0000000000 0.0000000000 0.0000000000 0.0000000000 0.0000000000 0.0000000000 0.0000000000 0.0000000000 0.0000000000 0.0000000000 0.0000000000 0.0000000000 0.0000000000 0.0000000000 0.0000000000 0.0000000000 0.0000000000 0.0000000000 0.0000000000 0.0000000000
        </DataArray>
        <DataArray type="Float32" Name="contact torque" NumberOfComponents="3" format="ascii">
 0.0000000000 0.0000000000 0.0000000000 0.0000000000 0.0000000000 0.0000000000 0.0000000000 0.0000000000 0.0000000000 0.0000000000 0.0000000000 0.0000000000 0.0000000000 0.0000000000 0.0000000000 0.0000000000 0.0000000000 0.0000000000 0.0000000000 0.0000000000 0.0000000000 0.0000000000 0.0000000000 0.0000000000 0.0000000000 0.0000000000 0.0000000000 0.0000000000 0.0000000000 0.0000000000 0.0000000000 0.0000000000 0.0000000000 0.0000000000 0.0000000000 0.0000000000 0.0000000000 0.0000000000 0.0000000000 0.0000000000 0.0000000000 0.0000000000 0.0000000000 0.0000000000 0.0000000000 0.0000000000 0.0000000000 0.0000000000 0.0000000000 0.0000000000 0.0000000000 0.0000000000 0.0000000000 0.0000000000 0.0000000000 0.0000000000 0.0000000000 0.0000000000 0.0000000000 0.0000000000 0.0000000000 0.0000000000 0.0000000000 0.0000000000 0.0000000000 0.0000000000 0.0000000000 0.0000000000 0.0000000000 0.0000000000 0.0000000000 0.0000000000 0.0000000000 0.0000000000 0.0000000000 0.0000000000 0.0000000000 0.0000000000 0.0000000000 0.0000000000 0.0000000000 0.0000000000 0.0000000000 0.0000000000
        </DataArray>
        <DataArray type="Float32" Name="sliding spring" NumberOfComponents="3" format="ascii">
 0.0000000000 0.0000000000 0.0000000000 0.0000000000 0.0000000000 0.0000000000 0.0000000000 0.0000000000 0.0000000000 0.0000000000 0.0000000000 0.0000000000 0.0000000000 0.0000000000 0.0000000000 0.0000000000 0.0000000000 0.0000000000 0.0000000000 0.0000000000 0.0000000000 0.0000000000 0.0000000000 0.0000000000 0.0000000000 0.0000000000 0.0000000000 0.0000000000 0.0000000000 0.0000000000 0.0000000000 0.0000000000 0.0000000000 0.0000000000 0.0000000000 0.0000000000 0.0000000000 0.0000000000 0.0000000000 0.0000000000 0.0000000000 0.0000000000 0.0000000000 0.0000000000 0.0000000000 0.0000000000 0.0000000000 0.0000000000 0.0000000000 0.0000000000 0.0000000000 0.0000000000 0.0000000000 0.0000000000 0.0000000000 0.0000000000 0.0000000000 0.0000000000 0.0000000000 0.0000000000 0.0000000000 0.0000000000 0.0000000000 0.0000000000 0.0000000000 0.0000000000 0.0000000000 0.0000000000 0.0000000000 0.0000000000 0.0000000000 0.0000000000 0.0000000000 0.0000000000 0.0000000000 0.0000000000 0.0000000000 0.0000000000 0.0000000000 0.0000000000 0.0000000000 0.0000000000 0.0000000000 0.0000000000
        </DataArray>
        <DataArray type="Float32" Name="rolling spring" NumberOfComponents="3" format="ascii">
 0.0000000000 0.0000000000 0.0000000000 0.0000000000 0.0000000000 0.0000000000 0.0000000000 0.0000000000 0.0000000000 0.0000000000 0.0000000000 0.0000000000 0.0000000000 0.0000000000 0.0000000000 0.0000000000 0.0000000000 0.0000000000 0.0000000000 0.0000000000 0.0000000000 0.0000000000 0.0000000000 0.0000000000 0.0000000000 0.0000000000 0.0000000000 0.0000000000 0.0000000000 0.0000000000 0.0000000000 0.0000000000 0.0000000000 0.0000000000 0.0000000000 0.0000000000 0.0000000000 0.0000000000 0.0000000000 0.0000000000 0.0000000000 0.0000000000 0.0000000000 0.0000000000 0.0000000000 0.0000000000 0.0000000000 0.0000000000 0.0000000000 0.0000000000 0.0000000000 0.0000000000 0.0000000000 0.0000000000 0.0000000000 0.0000000000 0.0000000000 0.0000000000 0.0000000000 0.0000000000 0.0000000000 0.0000000000 0.0000000000 0.0000000000 0.0000000000 0.0000000000 0.0000000000 0.0000000000 0.0000000000 0.0000000000 0.0000000000 0.0000000000 0.0000000000 0.0000000000 0.0000000000 0.0000000000 0.0000000000 0.0000000000 0.0000000000 0.0000000000 0.0000000000 0.0000000000 0.0000000000 0.0000000000
        </DataArray>
        <DataArray type="Float32" Name="torsion spring" NumberOfComponents="3" format="ascii">
 0.0000000000 0.0000000000 0.0000000000 0.0000000000 0.0000000000 0.0000000000 0.0000000000 0.0000000000 0.0000000000 0.0000000000 0.0000000000 0.0000000000 0.0000000000 0.0000000000 0.0000000000 0.0000000000 0.0000000000 0.0000000000 0.0000000000 0.0000000000 0.0000000000 0.0000000000 0.0000000000 0.0000000000 0.0000000000 0.0000000000 0.0000000000 0.0000000000 0.0000000000 0.0000000000 0.0000000000 0.0000000000 0.0000000000 0.0000000000 0.0000000000 0.0000000000 0.0000000000 0.0000000000 0.0000000000 0.0000000000 0.0000000000 0.0000000000 0.0000000000 0.0000000000 0.0000000000 0.0000000000 0.0000000000 0.0000000000 0.0000000000 0.0000000000 0.0000000000 0.0000000000 0.0000000000 0.0000000000 0.0000000000 0.0000000000 0.0000000000 0.0000000000 0.0000000000 0.0000000000 0.0000000000 0.0000000000 0.0000000000 0.0000000000 0.0000000000 0.0000000000 0.0000000000 0.0000000000 0.0000000000 0.0000000000 0.0000000000 0.0000000000 0.0000000000 0.0000000000 0.0000000000 0.0000000000 0.0000000000 0.0000000000 0.0000000000 0.0000000000 0.0000000000 0.0000000000 0.0000000000 0.0000000000
        </DataArray>
      </PointData>
    </Piece>
  </UnstructuredGrid>
</VTKFile>
