<?xml version="1.0"?>
<VTKFile type="UnstructuredGrid" version="0.1" byte_order="LittleEndian">
  <UnstructuredGrid>
    <FieldData>
      <DataArray type="Float32" Name="TIME"  NumberOfTuples="1" format="ascii"> 2.5000000000 </DataArray>
      <DataArray type="Int32"   Name="STEP"  NumberOfTuples="1" format="ascii"> 625000 </DataArray>
    </FieldData>
    <Piece NumberOfPoints="11600" NumberOfCells="11600">
      <Points>
        <DataArray type="Float32" NumberOfComponents="3" format="ascii">
 -0.4359481263 -0.8211256814 -0.0000010370 -0.2359949998 -0.8167960102 -0.0000009931 -0.0360418714 -0.8124663407 -0.0000009477 0.1639112539 -0.8081366711 -0.0000008964 0.3638643823 -0.8038070006 -0.0000008499 0.5638175095 -0.7994773304 -0.0000008052 0.7637706370 -0.7951476600 -0.0000007641 0.9637237649 -0.7908179912 -0.0000007280 1.1636768903 -0.7864883242 -0.0000007014 1.3636300183 -0.7821586573 -0.0000006884 1.5635831450 -0.7778289902 -0.0000006842 1.7635362708 -0.7734993235 -0.0000006895 1.9634893963 -0.7691696578 -0.0000007039 2.1634425172 -0.7648399934 -0.0000007349 2.3633956426 -0.7605103290 -0.0000007757 2.5633487677 -0.7561806644 -0.0000008238 2.7633018930 -0.7518509998 -0.0000008781 2.9632550199 -0.7475213358 -0.0000009370 3.1632081449 -0.7431916701 -0.0000010060 3.3631612732 -0.7388620031 -0.0000010691 3.5631144008 -0.7345323350 -0.0000011298 3.7630675286 -0.7302026670 -0.0000011857 3.9630206574 -0.7258729990 -0.0000012353 4.1629737849 -0.7215433292 -0.0000012775 4.3629269133 -0.7172136584 -0.0000013004 4.5628800411 -0.7128839880 -0.0000013132 4.7628331687 -0.7085543180 -0.0000013158 4.9627862970 -0.7042246490 -0.0000013090 5.1627394228 -0.6998949814 -0.0000012870 5.3626925511 -0.6955653151 -0.0000012532 5.5626456790 -0.6912356499 -0.0000012117 5.7625988073 -0.6869059843 -0.0000011636 5.9625519369 -0.6825763198 -0.0000011103 6.1625050665 -0.6782466558 -0.0000010467 6.3624581978 -0.6739169919 -0.0000009843 6.5624113286 -0.6695873297 -0.0000009210 6.7623644614 -0.6652576670 -0.0000008582 6.9623175953 -0.6609280041 -0.0000007966 7.1622707411 -0.6565983386 -0.0000007310 7.3622238762 -0.6522686719 -0.0000006717 7.5621770120 -0.6479390055 -0.0000006125 7.7621301472 -0.6436093382 -0.0000005525 7.9620832820 -0.6392796721 -0.0000004910 8.1620364316 -0.6349500037 -0.0000004201 8.3619895658 -0.6306203333 -0.0000003510 8.5619426989 -0.6262906637 -0.0000002799 8.7618958300 -0.6219609941 -0.0000002080 8.9618489579 -0.6176313250 -0.0000001373 9.1618020817 -0.6133016581 -0.0000000684 9.3617552083 -0.6089719933 -0.0000000134 9.5617083341 -0.6046423305 0.0000000326 9.7616614605 -0.6003126696 0.0000000672 9.9616145882 -0.5959830108 0.0000000898 10.1615677157 -0.5916533538 0.0000000905 10.3615208453 -0.5873236970 0.0000000765 10.5614739752 -0.5829940402 0.0000000535 10.7614271061 -0.5786643825 0.0000000231 10.9613802386 -0.5743347237 -0.0000000128 11.1613333740 -0.5700050634 -0.0000000560 11.3612865065 -0.5656754014 -0.0000000935 11.5612396384 -0.5613457383 -0.0000001273 11.7611927706 -0.5570160742 -0.0000001565 11.9611459043 -0.5526864096 -0.0000001800 12.1610990476 -0.5483567390 -0.0000001918 12.3610521811 -0.5440270667 -0.0000001967 12.5610053202 -0.5396973921 -0.0000001913 12.7609584521 -0.5353677146 -0.0000001836 12.9609115843 -0.5310380387 -0.0000001738 13.1608647178 -0.5267083604 -0.0000001602 13.3608178515 -0.5223786793 -0.0000001481 13.5607709838 -0.5180489909 -0.0000001349 13.8016700600 -0.5032066506 0.0000000000 14.0016683317 -0.5040379661 0.0000000000 14.2016666032 -0.5048692813 0.0000000000 14.4016648774 -0.5057005960 0.0000000000 14.6016631492 -0.5065319117 0.0000000000 14.8016614220 -0.5073632265 0.0000000000 15.0016596947 -0.5081945421 0.0000000000 15.2016579666 -0.5090258572 0.0000000000 15.4016562403 -0.5098571724 0.0000000000 15.6016545122 -0.5106884878 0.0000000000 15.8016527853 -0.5115198030 0.0000000000 16.0016510580 -0.5123511178 0.0000000000 16.2821422890 -0.3793330742 0.0000000145 16.4820683756 -0.3738961805 0.0000000142 16.6819944606 -0.3684592877 0.0000000136 16.8819205477 -0.3630223948 0.0000000130 17.0818466338 -0.3575855024 0.0000000124 17.2817727199 -0.3521486099 0.0000000117 17.4816988068 -0.3467117177 0.0000000110 17.6816248919 -0.3412748258 0.0000000104 17.8815509786 -0.3358379340 0.0000000097 18.0814770650 -0.3304010428 0.0000000091 18.2814031515 -0.3249641515 0.0000000085 18.4813292398 -0.3195272603 0.0000000078 18.6812553259 -0.3140903691 0.0000000072 18.8811814144 -0.3086534773 0.0000000066 19.0811075015 -0.3032165857 0.0000000059 19.2810335884 -0.2977796938 0.0000000053 19.4809596747 -0.2923428016 0.0000000047 -0.3397211680 -0.6457963569 -0.0000009766 -0.1397680409 -0.6414666868 -0.0000009337 0.0601850867 -0.6371370167 -0.0000008892 0.2601382143 -0.6328073469 -0.0000008447 0.4600913414 -0.6284776767 -0.0000008020 0.6600444690 -0.6241480064 -0.0000007621 0.8599975970 -0.6198183365 -0.0000007262 1.0599507253 -0.6154886683 -0.0000006968 1.2599038531 -0.6111590016 -0.0000006789 1.4598569799 -0.6068293345 -0.0000006706 1.6598101060 -0.6024996674 -0.0000006709 1.8597632314 -0.5981700008 -0.0000006802 2.0597163560 -0.5938403353 -0.0000007000 2.2596694804 -0.5895106714 -0.0000007331 2.4596226049 -0.5851810070 -0.0000007748 2.6595757299 -0.5808513423 -0.0000008230 2.8595288552 -0.5765216777 -0.0000008768 3.0594819811 -0.5721920130 -0.0000009353 3.2594351076 -0.5678623473 -0.0000009959 3.4593882344 -0.5635326800 -0.0000010545 3.6593413621 -0.5592030120 -0.0000011092 3.8592944898 -0.5548733438 -0.0000011585 4.0592476175 -0.5505436751 -0.0000012001 4.2592007453 -0.5462140050 -0.0000012280 4.4591538731 -0.5418843345 -0.0000012441 4.6591070011 -0.5375546643 -0.0000012501 4.8590601292 -0.5332249948 -0.0000012463 5.0590132576 -0.5288953264 -0.0000012318 5.2589663862 -0.5245656597 -0.0000012036 5.4589195146 -0.5202359943 -0.0000011667 5.6588726433 -0.5159063290 -0.0000011232 5.8588257725 -0.5115766640 -0.0000010740 6.0587789029 -0.5072469997 -0.0000010197 6.2587320338 -0.5029173359 -0.0000009609 6.4586851651 -0.4985876728 -0.0000009013 6.6586382974 -0.4942580108 -0.0000008420 6.8585914314 -0.4899283478 -0.0000007837 7.0585445688 -0.4855986844 -0.0000007262 7.2584977070 -0.4812690178 -0.0000006700 7.4584508430 -0.4769393515 -0.0000006153 7.6584039790 -0.4726096846 -0.0000005604 7.8583571156 -0.4682800177 -0.0000005040 8.0583102553 -0.4639503514 -0.0000004442 8.2582633940 -0.4596206810 -0.0000003801 8.4582165285 -0.4552910108 -0.0000003136 8.6581696612 -0.4509613406 -0.0000002454 8.8581227905 -0.4466316703 -0.0000001768 9.0580759185 -0.4423020017 -0.0000001102 9.2580290459 -0.4379723356 -0.0000000511 9.4579821730 -0.4336426721 -0.0000000008 9.6579353005 -0.4293130103 0.0000000397 9.8578884285 -0.4249833508 0.0000000687 10.0578415572 -0.4206536931 0.0000000833 10.2577946865 -0.4163240362 0.0000000789 10.4577478161 -0.4119943796 0.0000000628 10.6577009464 -0.4076647228 0.0000000382 10.8576540774 -0.4033350649 0.0000000068 11.0576072099 -0.3990054058 -0.0000000297 11.2575603423 -0.3946757443 -0.0000000676 11.4575134736 -0.3903460819 -0.0000001027 11.6574666057 -0.3860164186 -0.0000001338 11.8574197382 -0.3816867540 -0.0000001601 12.0573728734 -0.3773570874 -0.0000001792 12.2573260085 -0.3730274157 -0.0000001886 12.4572791424 -0.3686977427 -0.0000001910 12.6572322761 -0.3643680660 -0.0000001867 12.8571854076 -0.3600383898 -0.0000001791 13.0571385400 -0.3557087126 -0.0000001693 13.2570916713 -0.3513790336 -0.0000001579 13.4570448009 -0.3470493501 -0.0000001461 13.7023908616 -0.3295874116 0.0000000000 13.9023891352 -0.3304187251 0.0000000000 14.1023874078 -0.3312500401 0.0000000000 14.3023856805 -0.3320813557 0.0000000000 14.5023839530 -0.3329126708 0.0000000000 14.7023822257 -0.3337439862 0.0000000000 14.9023804981 -0.3345753015 0.0000000000 15.1023787706 -0.3354066166 0.0000000000 15.3023770435 -0.3362379323 0.0000000000 15.5023753160 -0.3370692470 0.0000000000 15.7023735889 -0.3379005621 0.0000000000 15.9023718589 -0.3387318795 0.0000000000 16.1774707584 -0.2089104522 0.0000000140 16.3773968436 -0.2034735585 0.0000000137 16.5773229304 -0.1980366649 0.0000000131 16.7772490172 -0.1925997720 0.0000000126 16.9771751036 -0.1871628794 0.0000000120 17.1771011899 -0.1817259870 0.0000000115 17.3770272762 -0.1762890947 0.0000000108 17.5769533627 -0.1708522022 0.0000000102 17.7768794492 -0.1654153105 0.0000000095 17.9768055357 -0.1599784192 0.0000000089 18.1767316224 -0.1545415281 0.0000000083 18.3766577092 -0.1491046372 0.0000000077 18.5765837968 -0.1436677455 0.0000000071 18.7765098845 -0.1382308543 0.0000000064 18.9764359715 -0.1327939627 0.0000000058 19.1763620585 -0.1273570710 0.0000000052 19.3762881454 -0.1219201791 0.0000000046 19.5762142312 -0.1164832870 0.0000000040 -0.4434473371 -0.4747967028 -0.0000009566 -0.2434942091 -0.4704670320 -0.0000009166 -0.0435410804 -0.4661373612 -0.0000008762 0.1564120450 -0.4618076912 -0.0000008353 0.3563651735 -0.4574780213 -0.0000007956 0.5563183013 -0.4531483513 -0.0000007577 0.7562714298 -0.4488186816 -0.0000007229 0.9562245590 -0.4444890128 -0.0000006927 1.1561776863 -0.4401593445 -0.0000006710 1.3561308142 -0.4358296777 -0.0000006592 1.5560839410 -0.4315000105 -0.0000006553 1.7560370670 -0.4271703437 -0.0000006597 1.9559901930 -0.4228406778 -0.0000006724 2.1559433156 -0.4185110125 -0.0000006966 2.3558964411 -0.4141813485 -0.0000007313 2.5558495661 -0.4098516841 -0.0000007730 2.7558026914 -0.4055220196 -0.0000008206 2.9557558174 -0.4011923549 -0.0000008727 3.1557089413 -0.3968626895 -0.0000009281 3.3556620682 -0.3925330235 -0.0000009833 3.5556151954 -0.3882033563 -0.0000010359 3.7555683230 -0.3838736884 -0.0000010840 3.9555214509 -0.3795440200 -0.0000011257 4.1554745774 -0.3752143504 -0.0000011569 4.3554277055 -0.3708846803 -0.0000011756 4.5553808337 -0.3665550102 -0.0000011846 4.7553339622 -0.3622253407 -0.0000011839 4.9552870912 -0.3578956719 -0.0000011739 5.1552402197 -0.3535660046 -0.0000011519 5.3551933493 -0.3492363387 -0.0000011195 5.5551464786 -0.3449066735 -0.00000108
[...]
      <PointData Scalars="radius">
        <DataArray type="Float32" Name="radius" format="ascii">
 0.1000000000 0.1000000000 0.1000000000 0.1000000000 0.1000000000 0.1000000000 0.1000000000 0.1000000000 0.1000000000 0.1000000000 0.1000000000 0.1000000000 0.1000000000 0.1000000000 0.1000000000 0.1000000000 0.1000000000 0.1000000000 0.1000000000 0.1000000000 0.1000000000 0.1000000000 0.1000000000 0.1000000000 0.1000000000 0.1000000000 0.1000000000 0.1000000000 0.1000000000 0.1000000000 0.1000000000 0.1000000000 0.1000000000 0.1000000000 0.1000000000 0.1000000000 0.1000000000 0.1000000000 0.1000000000 0.1000000000 0.1000000000 0.1000000000 0.1000000000 0.1000000000 0.1000000000 0.1000000000 0.1000000000 0.1000000000 0.1000000000 0.1000000000 0.1000000000 0.1000000000 0.1000000000 0.1000000000 0.1000000000 0.1000000000 0.1000000000 0.1000000000 0.1000000000 0.1000000000 0.1000000000 0.1000000000 0.1000000000 0.1000000000 0.1000000000 0.1000000000 0.1000000000 0.1000000000 0.1000000000 0.1000000000 0.1000000000 0.1000000000 0.1000000000 0.1000000000 0.1000000000 0.1000000000 0.1000000000 0.1000000000 0.1000000000 0.1000000000 0.1000000000 0.1000000000 0.1000000000 0.1000000000 0.1000000000 0.1000000000 0.1000000000 0.1000000000 0.1000000000 0.1000000000 0.1000000000 0.1000000000 0.1000000000 0.1000000000 0.1000000000 0.1000000000 0.1000000000 0.1000000000 0.1000000000 0.1000000000 0.1000000000 0.1000000000 0.1000000000 0.1000000000 0.1000000000 0.1000000000 0.1000000000 0.1000000000 0.1000000000 0.1000000000 0.1000000000 0.1000000000 0.1000000000 0.1000000000 0.1000000000 0.1000000000 0.1000000000 0.1000000000 0.1000000000 0.1000000000 0.1000000000 0.1000000000 0.1000000000 0.1000000000 0.1000000000 0.1000000000 0.1000000000 0.1000000000 0.1000000000 0.1000000000 0.1000000000 0.1000000000 0.1000000000 0.1000000000 0.1000000000 0.1000000000 0.1000000000 0.1000000000 0.1000000000 0.1000000000 0.1000000000 0.1000000000 0.1000000000 0.1000000000 0.1000000000 0.1000000000 0.1000000000 0.1000000000 0.1000000000 0.1000000000 0.1000000000 0.1000000000 0.1000000000 0.1000000000 0.1000000000 0.1000000000 0.1000000000 0.1000000000 0.1000000000 0.1000000000 0.1000000000 0.1000000000 0.1000000000 0.1000000000 0.1000000000 0.1000000000 0.1000000000 0.1000000000 0.1000000000 0.1000000000 0.1000000000 0.1000000000 0.1000000000 0.1000000000 0.1000000000 0.1000000000 0.1000000000 0.1000000000 0.1000000000 0.1000000000 0.1000000000 0.1000000000 0.1000000000 0.1000000000 0.1000000000 0.1000000000 0.1000000000 0.1000000000 0.1000000000 0.1000000000 0.1000000000 0.1000000000 0.1000000000 0.1000000000 0.1000000000 0.1000000000 0.1000000000 0.1000000000 0.1000000000 0.1000000000 0.1000000000 0.1000000000 0.1000000000 0.1000000000 0.1000000000 0.1000000000 0.1000000000 0.1000000000 0.1000000000 0.1000000000 0.1000000000 0.1000000000 0.1000000000 0.1000000000 0.1000000000 0.1000000000 0.1000000000 0.1000000000 0.1000000000 0.1000000000 0.1000000000 0.1000000000 0.1000000000 0.1000000000 0.1000000000 0.1000000000 0.1000000000 0.1000000000 0.1000000000 0.1000000000 0.1000000000 0.1000000000 0.1000000000 0.1000000000 0.1000000000 0.1000000000 0.1000000000 0.1000000000 0.1000000000 0.1000000000 0.1000000000 0.1000000000 0.1000000000 0.1000000000 0.1000000000 0.1000000000 0.1000000000 0.1000000000 0.1000000000 0.1000000000 0.1000000000 0.1000000000 0.1000000000 0.1000000000 0.1000000000 0.1000000000 0.1000000000 0.1000000000 0.1000000000 0.1000000000 0.1000000000 0.1000000000 0.1000000000 0.1000000000 0.1000000000 0.1000000000 0.1000000000 0.1000000000 0.1000000000 0.1000000000 0.1000000000 0.1000000000 0.1000000000 0.1000000000 0.1000000000 0.1000000000 0.1000000000 0.1000000000 0.1000000000 0.1000000000 0.1000000000 0.1000000000 0.1000000000 0.1000000000 0.1000000000 0.1000000000 0.1000000000 0.1000000000 0.1000000000 0.1000000000 0.1000000000 0.1000000000 0.1000000000 0.1000000000 0.1000000000 0.1000000000 0.1000000000 0.1000000000 0.1000000000 0.1000000000 0.1000000000 0.1000000000 0.1000000000 0.1000000000 0.1000000000 0.1000000000 0.1000000000 0.1000000000 0.1000000000 0.1000000000 0.1000000000 0.1000000000 0.1000000000 0.1000000000 0.1000000000 0.1000000000 0.1000000000 0.1000000000 0.1000000000 0.1000000000 0.1000000000 0.1000000000 0.1000000000 0.1000000000 0.1000000000 0.1000000000 0.1000000000 0.1000000000 0.1000000000 0.1000000000 0.1000000000 0.1000000000 0.1000000000 0.1000000000 0.1000000000 0.1000000000 0.1000000000 0.1000000000 0.1000000000 0.1000000000 0.1000000000 0.1000000000 0.1000000000 0.1000000000 0.1000000000 0.1000000000 0.1000000000 0.1000000000 0.1000000000 0.1000000000 0.1000000000 0.1000000000 0.1000000000 0.1000000000 0.1000000000 0.1000000000 0.1000000000 0.1000000000 0.1000000000 0.1000000000 0.1000000000 0.1000000000 0.1000000000 0.1000000000 0.1000000000 0.1000000000 0.1000000000 0.1000000000 0.1000000000 0.1000000000 0.1000000000 0.1000000000 0.1000000000 0.1000000000 0.1000000000 0.1000000000 0.1000000000 0.1000000000 0.1000000000 0.1000000000 0.1000000000 0.1000000000 0.1000000000 0.1000000000 0.1000000000 0.1000000000 0.1000000000 0.1000000000 0.1000000000 0.1000000000 0.1000000000 0.1000000000 0.1000000000 0.1000000000 0.1000000000 0.1000000000 0.1000000000 0.1000000000 0.1000000000 0.1000000000 0.1000000000 0.1000000000 0.1000000000 0.1000000000 0.1000000000 0.1000000000 0.1000000000 0.1000000000 0.1000000000 0.1000000000 0.1000000000 0.1000000000 0.1000000000 0.1000000000 0.1000000000 0.1000000000 0.1000000000 0.1000000000 0.1000000000 0.1000000000 0.1000000000 0.1000000000 0.1000000000 0.1000000000 0.1000000000 0.1000000000 0.1000000000 0.1000000000 0.1000000000 0.1000000000 0.1000000000 0.1000000000 0.1000000000 0.1000000000 0.1000000000 0.1000000000 0.1000000000 0.1000000000 0.1000000000 0.1000000000 0.1000000000 0.1000000000 0.1000000000 0.1000000000 0.1000000000 0.1000000000 0.1000000000 0.1000000000 0.1000000000 0.1000000000 0.1000000000 0.1000000000 0.1000000000 0.1000000000 0.1000000000 0.1000000000 0.1000000000 0.1000000000 0.1000000000 0.1000000000 0.1000000000 0.1000000000 0.1000000000 0.1000000000 0.1000000000 0.1000000000 0.1000000000 0.1000000000 0.1000000000 0.1000000000 0.1000000000 0.1000000000 0.1000000000 0.1000000000 0.1000000000 0.1000000000 0.1000000000 0.1000000000 0.1000000000 0.1000000000 0.1000000000 0.1000000000 0.1000000000 0.1000000000 0.1000000000 0.1000000000 0.1000000000 0.1000000000 0.1000000000 0.1000000000 0.1000000000 0.1000000000 0.1000000000 0.1000000000 0.1000000000 0.1000000000 0.1000000000 0.1000000000 0.1000000000 0.1000000000 0.1000000000 0.1000000000 0.1000000000 0.1000000000 0.1000000000 0.1000000000 0.1000000000 0.1000000000 0.1000000000 0.1000000000 0.1000000000 0.1000000000 0.1000000000 0.1000000000 0.1000000000 0.1000000000 0.1000000000 0.1000000000 0.1000000000 0.1000000000 0.1000000000 0.1000000000 0.1000000000 0.1000000000 0.1000000000 0.1000000000 0.1000000000 0.1000000000 0.1000000000 0.1000000000 0.1000000000 0.1000000000 0.1000000000 0.1000000000 0.1000000000 0.1000000000 0.1000000000 0.1000000000 0.1000000000 0.1000000000 0.1000000000 0.1000000000 0.1000000000 0.1000000000 0.1000000000 0.1000000000 0.1000000000 0.1000000000 0.1000000000 0.1000000000 0.1000000000 0.1000000000 0.1000000000 0.1000000000 0.1000000000 0.1000000000 0.1000000000 0.1000000000 0.1000000000 0.1000000000 0.1000000000 0.1000000000 0.1000000000 0.1000000000 0.1000000000 0.1000000000 0.1000000000 0.1000000000 0.1000000000 0.1000000000 0.1000000000 0.1000000000 0.1000000000 0.1000000000 0.1000000000 0.1000000000 0.1000000000 0.1000000000 0.1000000000 0.1000000000 0.1000000000 0.1000000000 0.1000000000 0.1000000000 0.1000000000 0.1000000000 0.1000000000 0.1000000000 0.1000000000 0.1000000000 0.1000000000 0.1000000000 0.1000000000 0.1000000000 0.1000000000 0.1000000000 0.1000000000 0.1000000000 0.1000000000 0.1000000000 0.1000000000 0.1000000000 0.1000000000 0.1000000000 0.1000000000 0.1000000000 0.1000000000 0.1000000000 0.1000000000 0.1000000000 0.1000000000 0.1000000000 0.1000000000 0.1000000000 0.1000000000 0.1000000000 0.1000000000 0.1000000000 0.1000000000 0.1000000000 0.1000000000 0.1000000000 0.1000000000 0.1000000000 0.1000000000 0.1000000000 0.1000000000 0.1000000000 0.1000000000 0.1000000000 0.1000000000 0.1000000000 0.1000000000 0.1000000000 0.1000000000 0.1000000000 0.1000000000 0.1000000000 0.1000000000 0.1000000000 0.1000000000 0.1000000000 0.1000000000 0.1000000000 0.1000000000 0.1000000000 0.1000000000 0.1000000000 0.1000000000 0.1000000000 0.1000000000 0.1000000000 0.1000000000 0.1000000000 0.1000000000 0.1000000000 0.1000000000 0.1000000000 0.1000000000 0.1000000000 0.1000000000 0.1000000000 0.1000000000 0.1000000000 0.1000000000 0.1000000000 0.1000000000 0.1000000000 0.1000000000 0.1000000000 0.1000000000 0.1000000000 0.1000000000 0.1000000000 0.1000000000 0.1000000000 0.1000000000 0.1000000000 0.1000000000 0.1000000000 0.1000000000 0.1000000000 0.1000000000 0.1000000000 0.1000000000 0.1000000000 0.1000000000 0.1000000000 0.1000000000 0.1000000000 0.1000000000 0.1000000000 0.1000000000 0.1000000000 0.1000000000 0.1000000000 0.1000000000 0.1000000000 0.1000000000 0.1000000000 0.1000000000 0.1000000000 0.1000000000 0.1000000000 0.1000000000 0.1000000000 0.1000000000 0.1000000000 0.1000000000 0.1000000000 0.1000000000 0.1000000000 0.1000000000 0.1000000000 0.1000000000 0.1000000000 0.1000000000 0.1000000000 0.1000000000 0.1000000000 0.1000000000 0.1000000000 0.1000000000 0.1000000000 0.1000000000 0.1000000000 0.1000000000 0.1000000000 0.1000000000 0.1000000000 0.1000000000 0.1000000000 0.1000000000 0.1000000000 0.1000000000 0.1000000000 0.1000000000 0.1000000000 0.1000000000 0.1000000000 0.1000000000 0.1000000000 0.1000000000 0.1000000000 0.1000000000 0.1000000000 0.1000000000 0.1000000000 0.1000000000 0.1000000000 0.1000000000 0.1000000000 0.1000000000 0.1000000000 0.1000000000 0.1000000000 0.1000000000 0.1000000000 0.1000000000 0.1000000000 0.1000000000 0.1000000000 0.1000000000 0.1000000000 0.1000000000 0.1000000000 0.1000000000 0.1000000000 0.1000000000 0.1000000000 0.1000000000 0.1000000000 0.1000000000 0.1000000000 0.1000000000 0.1000000000 0.1000000000 0.1000000000 0.1000000000 0.1000000000 0.1000000000 0.1000000000 0.1000000000 0.1000000000 0.1000000000 0.1000000000 0.1000000000 0.1000000000 0.1000000000 0.1000000000 0.1000000000 0.1000000000 0.1000000000 0.1000000000 0.1000000000 0.1000000000 0.1000000000 0.1000000000 0.1000000000 0.1000000000 0.1000000000 0.1000000000 0.1000000000 0.1000000000 0.1000000000 0.1000000000 0.1000000000 0.1000000000 0.1000000000 0.1000000000 0.1000000000 0.1000000000 0.1000000000 0.1000000000 0.1000000000 0.1000000000 0.1000000000 0.1000000000 0.1000000000 0.1000000000 0.1000000000 0.1000000000 0.1000000000 0.1000000000 0.1000000000 0.1000000000 0.1000000000 0.1000000000 0.1000000000 0.1000000000 0.1000000000 0.1000000000 0.1000000000 0.1000000000 0.1000000000 0.1000000000 0.1000000000 0.1000000000 0.1000000000 0.1000000000 0.1000000000 0.1000000000 0.1000000000 0.1000000000 0.1000000000 0.1000000000 0.1000000000 0.1000000000 0.1000000000 0.1000000000 0.1000000000 0.1000000000 0.1000000000 0.1000000000 0.1000000000 0.1000000000 0.1000000000 0.1000000000 0.1000000000 0.1000000000 0.1000000000 0.1000000000 0.1000000000 0.1000000000 0.1000000000 0.1000000000 0.1000000000 0.1000000000 0.1000000000 0.1000000000 0.1000000000 0.1000000000 0.1000000000 0.1000000000 0.1000000000 0.1000000000 0.1000000000 0.1000000000 0.1000000000 0.1000000000 0.1000000000 0.1000000000 0.1000000000 0.1000000000 0.1000000000 0.1000000000 0.1000000000 0.1000000000 0.1000000000 0.1000000000 0.1000000000 0.1000000000 0.1000000000 0.1000000000 0.1000000000 0.1000000000 0.1000000000 0.1000000000 0.1000000000 0.1000000000 0.1000000000 0.1000000000 0.1000000000 0.1000000000 0.1000000000 0.1000000000 0.1000000000 0.1000000000 0.1000000000 0.1000000000 0.1000000000 0.1000000000 0.1000000000 0.1000000000 0.1000000000 0.1000000000 0.1000000000 0.1000000000 0.1000000000 0.1000000000 0.1000000000 0.1000000000 0.1000000000 0.1000000000 0.1000000000 0.1000000000 0.1000000000 0.1000000000 0.1000000000 0.1000000000 0.1000000000 0.1000000000 0.1000000000 0.1000000000 0.1000000000 0.1000000000 0.1000000000 0.1000000000 0.1000000000 0.1000000000 0.1000000000 0.1000000000 0.1000000000 0.1000000000 0.1000000000 0.1000000000 0.1000000000 0.1000000000 0.1000000000 0.1000000000 0.1000000000 0.1000000000 0.1000000000 0.1000000000 0.1000000000 0.1000000000 0.1000000000 0.1000000000 0.1000000000 0.1000000000 0.1000000000 0.1000000000 0.1000000000 0.1000000000 0.1000000000 0.1000000000 0.1000000000 0.1000000000 0.1000000000 0.1000000000 0.1000000000 0.1000000000 0.1000000000 0.1000000000 0.1000000000 0.1000000000 0.1000000000 0.1000000000 0.1000000000 0.1000000000 0.1000000000 0.1000000000 0.1000000000 0.1000000000 0.1000000000 0.1000000000 0.1000000000 0.1000000000 0.1000000000 0.1000000000 0.1000000000 0.1000000000 0.1000000000 0.1000000000 0.1000000000 0.1000000000 0.1000000000 0.1000000000 0.1000000000 0.1000000000 0.1000000000 0.1000000000 0.1000000000 0.1000000000 0.1000000000 0.1000000000 0.1000000000 0.1000000000 0.1000000000 0.1000000000 0.1000000000 0.1000000000 0.1000000000 0.1000000000 0.1000000000 0.1000000000 0.1000000000 0.1000000000 0.1000000000 0.1000000000 0.1000000000 0.1000000000 0.1000000000 0.1000000000 0.1000000000 0.1000000000 0.1000000000 0.1000000000 0.1000000000 0.1000000000 0.1000000000 0.1000000000 0.1000000000 0.1000000000 0.1000000000 0.1000000000 0.1000000000 0.1000000000 0.1000000000 0.1000000000 0.1000000000 0.1000000000 0.1000000000 0.1000000000 0.1000000000 0.1000000000 0.1000000000 0.1000000000 0.1000000000 0.1000000000 0.1000000000 0.1000000000 0.1000000000 0.1000000000 0.1000000000 0.1000000000 0.1000000000 0.1000000000 0.1000000000 0.1000000000 0.1000000000 0.1000000000 0.1000000000 0.1000000000 0.1000000000 0.1000000000 0.1000000000 0.1000000000 0.1000000000 0.1000000000 0.1000000000 0.1000000000 0.1000000000 0.1000000000 0.1000000000 0.1000000000 0.1000000000 0.1000000000 0.1000000000 0.1000000000 0.1000000000 0.1000000000 0.1000000000 0.1000000000 0.1000000000 0.1000000000 0.1000000000 0.1000000000 0.1000000000 0.1000000000 0.1000000000 0.1000000000 0.1000000000 0.1000000000 0.1000000000 0.1000000000 0.1000000000 0.1000000000 0.1000000000 0.1000000000 0.1000000000 0.1000000000 0.1000000000 0.1000000000 0.1000000000 0.1000000000 0.1000000000 0.1000000000 0.1000000000 0.1000000000 0.1000000000 0.1000000000 0.1000000000 0.1000000000 0.1000000000 0.1000000000 0.1000000000 0.1000000000 0.1000000000 0.1000000000 0.1000000000 0.1000000000 0.1000000000 0.1000000000 0.1000000000 0.1000000000 0.1000000000 0.1000000000 0.1000000000 0.1000000000 0.1000000000 0.1000000000 0.1000000000 0.1000000000 0.1000000000 0.1000000000 0.1000000000 0.1000000000 0.1000000000 0.1000000000 0.1000000000 0.1000000000 0.1000000000 0.1000000000 0.1000000000 0.1000000000 0.1000000000 0.1000000000 0.1000000000 0.1000000000 0.1000000000 0.1000000000 0.1000000000 0.1000000000 0.1000000000 0.1000000000 0.1000000000 0.1000000000 0.1000000000 0.1000000000 0.1000000000 0.1000000000 0.1000000000 0.1000000000 0.1000000000 0.1000000000 0.1000000000 0.1000000000 0.1000000000 0.1000000000 0.1000000000 0.1000000000 0.1000000000 0.1000000000 0.1000000000 0.1000000000 0.1000000000 0.1000000000 0.1000000000 0.1000000000 0.1000000000 0.1000000000 0.1000000000 0.1000000000 0.1000000000 0.1000000000 0.1000000000 0.1000000000 0.1000000000 0.1000000000 0.1000000000 0.1000000000 0.1000000000 0.1000000000 0.1000000000 0.1000000000 0.1000000000 0.1000000000 0.1000000000 0.1000000000 0.1000000000 0.1000000000 0.1000000000 0.1000000000 0.1000000000 0.1000000000 0.1000000000 0.1000000000 0.1000000000 0.1000000000 0.1000000000 0.1000000000 0.1000000000 0.1000000000 0.1000000000 0.1000000000 0.1000000000 0.1000000000 0.1000000000 0.1000000000 0.1000000000 0.1000000000 0.1000000000 0.1000000000 0.1000000000 0.1000000000 0.1000000000 0.1000000000 0.1000000000 0.1000000000 0.1000000000 0.1000000000 0.1000000000 0.1000000000 0.1000000000 0.1000000000 0.1000000000 0.1000000000 0.1000000000 0.1000000000 0.1000000000 0.1000000000 0.1000000000 0.1000000000 0.1000000000 0.1000000000 0.1000000000 0.1000000000 0.1000000000 0.1000000000 0.1000000000 0.1000000000 0.1000000000 0.1000000000 0.1000000000 0.1000000000 0.1000000000 0.1000000000 0.1000000000 0.1000000000 0.1000000000 0.1000000000 0.1000000000 0.1000000000 0.1000000000 0.1000000000 0.1000000000 0.1000000000 0.1000000000 0.1000000000 0.1000000000 0.1000000000 0.1000000000 0.1000000000 0.1000000000 0.1000000000 0.1000000000 0.1000000000 0.1000000000 0.1000000000 0.1000000000 0.1000000000 0.1000000000 0.1000000000 0.1000000000 0.1000000000 0.1000000000 0.1000000000 0.1000000000 0.1000000000 0.1000000000 0.1000000000 0.1000000000 0.1000000000 0.1000000000 0.1000000000 0.1000000000 0.1000000000 0.1000000000 0.1000000000 0.1000000000 0.1000000000 0.1000000000 0.1000000000 0.1000000000 0.1000000000 0.1000000000 0.1000000000 0.1000000000 0.1000000000 0.1000000000 0.1000000000 0.1000000000 0.1000000000 0.1000000000 0.1000000000 0.1000000000 0.1000000000 0.1000000000 0.1000000000 0.1000000000 0.1000000000 0.1000000000 0.1000000000 0.1000000000 0.1000000000 0.1000000000 0.1000000000 0.1000000000 0.1000000000 0.1000000000 0.1000000000 0.1000000000 0.1000000000 0.1000000000 0.1000000000 0.1000000000 0.1000000000 0.1000000000 0.1000000000 0.1000000000 0.1000000000 0.1000000000 0.1000000000 0.1000000000 0.1000000000 0.1000000000 0.1000000000 0.1000000000 0.1000000000 0.1000000000 0.1000000000 0.1000000000 0.1000000000 0.1000000000 0.1000000000 0.1000000000 0.1000000000 0.1000000000 0.1000000000 0.1000000000 0.1000000000 0.1000000000 0.1000000000 0.1000000000 0.1000000000 0.1000000000 0.1000000000 0.1000000000 0.1000000000 0.1000000000 0.1000000000 0.1000000000 0.1000000000 0.1000000000 0.1000000000 0.1000000000 0.1000000000 0.1000000000 0.1000000000 0.1000000000 0.1000000000 0.1000000000 0.1000000000 0.1000000000 0.1000000000 0.1000000000 0.1000000000 0.1000000000 0.1000000000 0.1000000000 0.1000000000 0.1000000000 0.1000000000 0.1000000000 0.1000000000 0.1000000000 0.1000000000 0.1000000000 0.1000000000 0.1000000000 0.1000000000 0.1000000000 0.1000000000 0.1000000000 0.1000000000 0.1000000000 0.1000000000 0.1000000000 0.1000000000 0.1000000000 0.1000000000 0.1000000000 0.1000000000 0.1000000000 0.1000000000 0.1000000000 0.1000000000 0.1000000000 0.1000000000 0.1000000000 0.1000000000 0.1000000000 0.1000000000 0.1000000000 0.1000000000 0.1000000000 0.1000000000 0.1000000000 0.1000000000 0.1000000000 0.1000000000 0.1000000000 0.1000000000 0.1000000000 0.1000000000 0.1000000000 0.1000000000 0.1000000000 0.1000000000 0.1000000000 0.1000000000 0.1000000000 0.1000000000 0.1000000000 0.1000000000 0.1000000000 0.1000000000 0.1000000000 0.1000000000 0.1000000000 0.1000000000 0.1000000000 0.1000000000 0.1000000000 0.1000000000 0.1000000000 0.1000000000 0.1000000000 0.1000000000 0.1000000000 0.1000000000 0.1000000000 0.1000000000 0.1000000000 0.1000000000 0.1000000000 0.1000000000 0.1000000000 0.1000000000 0.1000000000 0.1000000000 0.1000000000 0.1000000000 0.1000000000 0.1000000000 0.1000000000 0.1000000000 0.1000000000 0.1000000000 0.1000000000 0.1000000000 0.1000000000 0.1000000000 0.1000000000 0.1000000000 0.1000000000 0.1000000000 0.1000000000 0.1000000000 0.1000000000 0.1000000000 0.1000000000 0.1000000000 0.1000000000 0.1000000000 0.1000000000 0.1000000000 0.1000000000 0.1000000000 0.1000000000 0.1000000000 0.1000000000 0.1000000000 0.1000000000 0.1000000000 0.1000000000 0.1000000000 0.1000000000 0.1000000000 0.1000000000 0.1000000000 0.1000000000 0.1000000000 0.1000000000 0.1000000000 0.1000000000 0.1000000000 0.1000000000 0.1000000000 0.1000000000 0.1000000000 0.1000000000 0.1000000000 0.1000000000 0.1000000000 0.1000000000 0.1000000000 0.1000000000 0.1000000000 0.10000000