<?xml version="1.0"?>
<VTKFile type="UnstructuredGrid" version="0.1" byte_order="LittleEndian">
  <UnstructuredGrid>
    <FieldData>
      <DataArray type="Float32" Name="TIME"  NumberOfTuples="1" format="ascii"> 1.9500000000 </DataArray>
      <DataArray type="Int32"   Name="STEP"  NumberOfTuples="1" format="ascii"> 487500 </DataArray>
    </FieldData>
    <Piece NumberOfPoints="11600" NumberOfCells="11600">
      <Points>
        <DataArray type="Float32" NumberOfComponents="3" format="ascii">
 -0.3266932168 -0.6622906990 0.0000033051 -0.1267252608 -0.6587107406 0.0000032724 0.0732426981 -0.6551307822 0.0000032392 0.2732106545 -0.6515508235 0.0000032050 0.4731786135 -0.6479708645 0.0000031635 0.6731465708 -0.6443909059 0.0000031182 0.8731145282 -0.6408109471 0.0000030691 1.0730824866 -0.6372309885 0.0000030169 1.2730504436 -0.6336510296 0.0000029650 1.4730184022 -0.6300710706 0.0000029055 1.6729863596 -0.6264911118 0.0000028430 1.8729543173 -0.6229111531 0.0000027755 2.0729222758 -0.6193311943 0.0000027013 2.2728902334 -0.6157512355 0.0000026163 2.4728581921 -0.6121712764 0.0000025135 2.6728261500 -0.6085913175 0.0000024004 2.8727941076 -0.6050113585 0.0000022766 3.0727620664 -0.6014313998 0.0000021438 3.2727300247 -0.5978514407 0.0000019946 3.4726979836 -0.5942714815 0.0000018438 3.6726659414 -0.5906915225 0.0000016910 3.8726338994 -0.5871115633 0.0000015385 4.0726018582 -0.5835316044 0.0000013884 4.2725698175 -0.5799516452 0.0000012391 4.4725377762 -0.5763716858 0.0000011050 4.6725057344 -0.5727917267 0.0000009772 4.8724736925 -0.5692117674 0.0000008556 5.0724416515 -0.5656318083 0.0000007389 5.2724096110 -0.5620518489 0.0000006225 5.4723775701 -0.5584718893 0.0000005155 5.6723455283 -0.5548919298 0.0000004106 5.8723134865 -0.5513119702 0.0000003085 6.0722814455 -0.5477320110 0.0000002108 6.2722494058 -0.5441520512 0.0000001147 6.4722173648 -0.5405720912 0.0000000428 6.6721853231 -0.5369921313 -0.0000000166 6.8721532813 -0.5334121714 -0.0000000610 7.0721212403 -0.5298322118 -0.0000000898 7.2720892007 -0.5262522516 -0.0000000955 7.4720571598 -0.5226722912 -0.0000000775 7.6720251181 -0.5190923309 -0.0000000473 7.8719930764 -0.5155123706 -0.0000000069 8.0719610353 -0.5119324105 0.0000000404 8.2719289959 -0.5083524500 0.0000000972 8.4718969549 -0.5047724889 0.0000001523 8.6718649131 -0.5011925282 0.0000002062 8.8718328715 -0.4976125673 0.0000002570 9.0718008306 -0.4940326065 0.0000003040 9.2717687906 -0.4904526453 0.0000003474 9.4717367496 -0.4868726837 0.0000003849 9.6717047076 -0.4832927224 0.0000004228 9.8716726657 -0.4797127611 0.0000004644 10.0716406243 -0.4761327997 0.0000005126 10.2716085841 -0.4725528383 0.0000005777 10.4715765426 -0.4689728763 0.0000006574 10.6715445006 -0.4653929146 0.0000007472 10.8715124584 -0.4618129528 0.0000008454 11.0714804173 -0.4582329911 0.0000009484 11.2714483756 -0.4546530291 0.0000010627 11.4714163343 -0.4510730669 0.0000011633 11.6713842919 -0.4474931048 0.0000012593 11.8713522495 -0.4439131427 0.0000013490 12.0713202084 -0.4403331806 0.0000014322 12.2712881658 -0.4367532180 0.0000015135 12.4712561248 -0.4331732552 0.0000015792 12.6712240820 -0.4295932929 0.0000016463 12.8711920403 -0.4260133293 0.0000017034 13.0711599989 -0.4224333667 0.0000017594 13.2711279558 -0.4188534036 0.0000018197 13.4710959163 -0.4152734403 0.0000018761 13.6710638730 -0.4116934748 0.0000019345 13.9005795673 -0.4007654685 -0.0000000000 14.1005784192 -0.4014429559 -0.0000000000 14.3005772710 -0.4021204432 -0.0000000000 14.5005761254 -0.4027979299 -0.0000000000 14.7005749774 -0.4034754175 0.0000000000 14.9005738304 -0.4041529043 0.0000000000 15.1005726835 -0.4048303918 0.0000000000 15.3005715355 -0.4055078789 0.0000000000 15.5005703895 -0.4061853661 0.0000000000 15.7005692416 -0.4068628535 0.0000000000 15.9005680950 -0.4075403407 0.0000000000 16.1005669480 -0.4082178275 0.0000000000 16.3640193769 -0.3022084373 -0.0000000353 16.5639726048 -0.2978833037 -0.0000000346 16.7639258313 -0.2935581708 -0.0000000338 16.9638790601 -0.2892330377 -0.0000000330 17.1638322875 -0.2849079048 -0.0000000323 17.3637855148 -0.2805827718 -0.0000000314 17.5637387435 -0.2762576390 -0.0000000306 17.7636919706 -0.2719325060 -0.0000000298 17.9636451991 -0.2676073728 -0.0000000289 18.1635984267 -0.2632822397 -0.0000000281 18.3635516541 -0.2589571066 -0.0000000273 18.5635048831 -0.2546319736 -0.0000000265 18.7634581099 -0.2503068407 -0.0000000256 18.9634113390 -0.2459817072 -0.0000000248 19.1633645665 -0.2416565740 -0.0000000240 19.3633177940 -0.2373314407 -0.0000000232 19.5632710209 -0.2330063072 -0.0000000224 -0.2298095733 -0.4873233902 0.0000031917 -0.0298416170 -0.4837434322 0.0000031578 0.1701263411 -0.4801634733 0.0000031226 0.3700942994 -0.4765835147 0.0000030825 0.5700622568 -0.4730035558 0.0000030375 0.7700302142 -0.4694235969 0.0000029882 0.9699981716 -0.4658436380 0.0000029353 1.1699661298 -0.4622636791 0.0000028794 1.3699340881 -0.4586837205 0.0000028194 1.5699020456 -0.4551037616 0.0000027553 1.7698700032 -0.4515238028 0.0000026870 1.9698379609 -0.4479438438 0.0000026131 2.1698059193 -0.4443638849 0.0000025307 2.3697738779 -0.4407839262 0.0000024342 2.5697418356 -0.4372039672 0.0000023264 2.7697097935 -0.4336240081 0.0000022087 2.9696777513 -0.4300440491 0.0000020819 3.1696457100 -0.4264640902 0.0000019458 3.3696136688 -0.4228841313 0.0000018012 3.5695816269 -0.4193041721 0.0000016537 3.7695495850 -0.4157242130 0.0000015055 3.9695175432 -0.4121442539 0.0000013585 4.1694855022 -0.4085642950 0.0000012148 4.3694534613 -0.4049843358 0.0000010792 4.5694214196 -0.4014043765 0.0000009516 4.7693893778 -0.3978244172 0.0000008305 4.9693573363 -0.3942444579 0.0000007153 5.1693252955 -0.3906644989 0.0000006047 5.3692932549 -0.3870845392 0.0000005000 5.5692612132 -0.3835045799 0.0000003993 5.7692291716 -0.3799246203 0.0000003018 5.9691971302 -0.3763446608 0.0000002078 6.1691650897 -0.3727647014 0.0000001195 6.3691330491 -0.3691847414 0.0000000444 6.5691010076 -0.3656047815 -0.0000000172 6.7690689662 -0.3620248217 -0.0000000653 6.9690369248 -0.3584448618 -0.0000000985 7.1690048842 -0.3548649020 -0.0000001142 7.3689728438 -0.3512849415 -0.0000001062 7.5689408023 -0.3477049813 -0.0000000824 7.7689087609 -0.3441250210 -0.0000000475 7.9688767194 -0.3405450607 -0.0000000040 8.1688446789 -0.3369651005 0.0000000458 8.3688126384 -0.3333851395 0.0000000994 8.5687805968 -0.3298051788 0.0000001522 8.7687485554 -0.3262252179 0.0000002024 8.9687165138 -0.3226452571 0.0000002490 9.1686844732 -0.3190652962 0.0000002913 9.3686524326 -0.3154853346 0.0000003288 9.5686203909 -0.3119053733 0.0000003647 9.7685883493 -0.3083254119 0.0000004027 9.9685563075 -0.3047454506 0.0000004462 10.1685242666 -0.3011654894 0.0000004997 10.3684922256 -0.2975855273 0.0000005692 10.5684601837 -0.2940055656 0.0000006503 10.7684281419 -0.2904256040 0.0000007402 10.9683960998 -0.2868456422 0.0000008363 11.1683640584 -0.2832656803 0.0000009361 11.3683320170 -0.2796857182 0.0000010339 11.5682999749 -0.2761057561 0.0000011259 11.7682679328 -0.2725257941 0.0000012119 11.9682358903 -0.2689458319 0.0000012914 12.1682038487 -0.2653658694 0.0000013644 12.3681718069 -0.2617859073 0.0000014286 12.5681397648 -0.2582059444 0.0000014870 12.7681077230 -0.2546259819 0.0000015409 12.9680756803 -0.2510460192 0.0000015926 13.1680436388 -0.2474660557 0.0000016450 13.3680115968 -0.2438860936 0.0000016990 13.5679795545 -0.2403061292 0.0000017543 13.8011668598 -0.2272226409 0.0000000000 14.0011657137 -0.2279001264 0.0000000000 14.2011645665 -0.2285776135 0.0000000000 14.4011634194 -0.2292551011 0.0000000000 14.6011622722 -0.2299325881 0.0000000000 14.8011611251 -0.2306100755 0.0000000000 15.0011599777 -0.2312875628 0.0000000000 15.2011588304 -0.2319650498 0.0000000000 15.4011576837 -0.2326425375 0.0000000000 15.6011565364 -0.2333200242 0.0000000000 15.8011553895 -0.2339975112 0.0000000000 16.0011542397 -0.2346750007 0.0000000000 16.2602970887 -0.1312064308 -0.0000000343 16.4602503148 -0.1268812971 -0.0000000336 16.6602035428 -0.1225561636 -0.0000000328 16.8601567710 -0.1182310306 -0.0000000320 17.0601099986 -0.1139058976 -0.0000000313 17.2600632263 -0.1095807647 -0.0000000305 17.4600164539 -0.1052556319 -0.0000000296 17.6599696820 -0.1009304986 -0.0000000288 17.8599229101 -0.0966053656 -0.0000000280 18.0598761378 -0.0922802326 -0.0000000271 18.2598293654 -0.0879550996 -0.0000000263 18.4597825932 -0.0836299669 -0.0000000255 18.6597358216 -0.0793048334 -0.0000000247 18.8596890499 -0.0749797004 -0.0000000239 19.0596422774 -0.0706545672 -0.0000000231 19.2595955051 -0.0663294340 -0.0000000222 19.4595487326 -0.0620043007 -0.0000000214 19.6595019591 -0.0576791674 -0.0000000206 -0.3328938872 -0.3159360391 0.0000031130 -0.1329259305 -0.3123560806 0.0000030784 0.0670420279 -0.3087761221 0.0000030426 0.2670099843 -0.3051961633 0.0000030033 0.4669779428 -0.3016162045 0.0000029586 0.6669459001 -0.2980362457 0.0000029095 0.8669138578 -0.2944562869 0.0000028559 1.0668818160 -0.2908763282 0.0000027985 1.2668497731 -0.2872963690 0.0000027370 1.4668177314 -0.2837164105 0.0000026709 1.6667856892 -0.2801364516 0.0000026011 1.8667536468 -0.2765564927 0.0000025264 2.0667216051 -0.2729765340 0.0000024452 2.2666895626 -0.2693965748 0.0000023536 2.4666575211 -0.2658166162 0.0000022501 2.6666254791 -0.2622366572 0.0000021378 2.8665934371 -0.2586566983 0.0000020171 3.0665613954 -0.2550767393 0.0000018890 3.2665293536 -0.2514967802 0.0000017530 3.4664973122 -0.2479168213 0.0000016119 3.6664652704 -0.2443368621 0.0000014692 3.8664332286 -0.2407569031 0.0000013267 4.0664011871 -0.2371769441 0.0000011864 4.2663691460 -0.2335969848 0.0000010515 4.4663371046 -0.2300170256 0.0000009244 4.6663050631 -0.2264370665 0.0000008039 4.8662730214 -0.2228571073 0.0000006898 5.0662409802 -0.2192771480 0.0000005814 5.2662089392 -0.2156971888 0.0000004794 5.4661768981 -0.2121172291 0.0000003829 5.6661448566 -0.2085372697 0.0000002901 5.8661128151 -0.2049573102 0.0000002011 6.0660807739 -0.2013773506 0.0000001171 6.2660487333 -0.197797
[...]
      <PointData Scalars="radius">
        <DataArray type="Float32" Name="radius" format="ascii">
 0.1000000000 0.1000000000 0.1000000000 0.1000000000 0.1000000000 0.1000000000 0.1000000000 0.1000000000 0.1000000000 0.1000000000 0.1000000000 0.1000000000 0.1000000000 0.1000000000 0.1000000000 0.1000000000 0.1000000000 0.1000000000 0.1000000000 0.1000000000 0.1000000000 0.1000000000 0.1000000000 0.1000000000 0.1000000000 0.1000000000 0.1000000000 0.1000000000 0.1000000000 0.1000000000 0.1000000000 0.1000000000 0.1000000000 0.1000000000 0.1000000000 0.1000000000 0.1000000000 0.1000000000 0.1000000000 0.1000000000 0.1000000000 0.1000000000 0.1000000000 0.1000000000 0.1000000000 0.1000000000 0.1000000000 0.1000000000 0.1000000000 0.1000000000 0.1000000000 0.1000000000 0.1000000000 0.1000000000 0.1000000000 0.1000000000 0.1000000000 0.1000000000 0.1000000000 0.1000000000 0.1000000000 0.1000000000 0.1000000000 0.1000000000 0.1000000000 0.1000000000 0.1000000000 0.1000000000 0.1000000000 0.1000000000 0.1000000000 0.1000000000 0.1000000000 0.1000000000 0.1000000000 0.1000000000 0.1000000000 0.1000000000 0.1000000000 0.1000000000 0.1000000000 0.1000000000 0.1000000000 0.1000000000 0.1000000000 0.1000000000 0.1000000000 0.1000000000 0.1000000000 0.1000000000 0.1000000000 0.1000000000 0.1000000000 0.1000000000 0.1000000000 0.1000000000 0.1000000000 0.1000000000 0.1000000000 0.1000000000 0.1000000000 0.1000000000 0.1000000000 0.1000000000 0.1000000000 0.1000000000 0.1000000000 0.1000000000 0.1000000000 0.1000000000 0.1000000000 0.1000000000 0.1000000000 0.1000000000 0.1000000000 0.1000000000 0.1000000000 0.1000000000 0.1000000000 0.1000000000 0.1000000000 0.1000000000 0.1000000000 0.1000000000 0.1000000000 0.1000000000 0.1000000000 0.1000000000 0.1000000000 0.1000000000 0.1000000000 0.1000000000 0.1000000000 0.1000000000 0.1000000000 0.1000000000 0.1000000000 0.1000000000 0.1000000000 0.1000000000 0.1000000000 0.1000000000 0.1000000000 0.1000000000 0.1000000000 0.1000000000 0.1000000000 0.1000000000 0.1000000000 0.1000000000 0.1000000000 0.1000000000 0.1000000000 0.1000000000 0.1000000000 0.1000000000 0.1000000000 0.1000000000 0.1000000000 0.1000000000 0.1000000000 0.1000000000 0.1000000000 0.1000000000 0.1000000000 0.1000000000 0.1000000000 0.1000000000 0.1000000000 0.1000000000 0.1000000000 0.1000000000 0.1000000000 0.1000000000 0.1000000000 0.1000000000 0.1000000000 0.1000000000 0.1000000000 0.1000000000 0.1000000000 0.1000000000 0.1000000000 0.1000000000 0.1000000000 0.1000000000 0.1000000000 0.1000000000 0.1000000000 0.1000000000 0.1000000000 0.1000000000 0.1000000000 0.1000000000 0.1000000000 0.1000000000 0.1000000000 0.1000000000 0.1000000000 0.1000000000 0.1000000000 0.1000000000 0.1000000000 0.1000000000 0.1000000000 0.1000000000 0.1000000000 0.1000000000 0.1000000000 0.1000000000 0.1000000000 0.1000000000 0.1000000000 0.1000000000 0.1000000000 0.1000000000 0.1000000000 0.1000000000 0.1000000000 0.1000000000 0.1000000000 0.1000000000 0.1000000000 0.1000000000 0.1000000000 0.1000000000 0.1000000000 0.1000000000 0.1000000000 0.1000000000 0.1000000000 0.1000000000 0.1000000000 0.1000000000 0.1000000000 0.1000000000 0.1000000000 0.1000000000 0.1000000000 0.1000000000 0.1000000000 0.1000000000 0.1000000000 0.1000000000 0.1000000000 0.1000000000 0.1000000000 0.1000000000 0.1000000000 0.1000000000 0.1000000000 0.1000000000 0.1000000000 0.1000000000 0.1000000000 0.1000000000 0.1000000000 0.1000000000 0.1000000000 0.1000000000 0.1000000000 0.1000000000 0.1000000000 0.1000000000 0.1000000000 0.1000000000 0.1000000000 0.1000000000 0.1000000000 0.1000000000 0.1000000000 0.1000000000 0.1000000000 0.1000000000 0.1000000000 0.1000000000 0.1000000000 0.1000000000 0.1000000000 0.1000000000 0.1000000000 0.1000000000 0.1000000000 0.1000000000 0.1000000000 0.1000000000 0.1000000000 0.1000000000 0.1000000000 0.1000000000 0.1000000000 0.1000000000 0.1000000000 0.1000000000 0.1000000000 0.1000000000 0.1000000000 0.1000000000 0.1000000000 0.1000000000 0.1000000000 0.1000000000 0.1000000000 0.1000000000 0.1000000000 0.1000000000 0.1000000000 0.1000000000 0.1000000000 0.1000000000 0.1000000000 0.1000000000 0.1000000000 0.1000000000 0.1000000000 0.1000000000 0.1000000000 0.1000000000 0.1000000000 0.1000000000 0.1000000000 0.1000000000 0.1000000000 0.1000000000 0.1000000000 0.1000000000 0.1000000000 0.1000000000 0.1000000000 0.1000000000 0.1000000000 0.1000000000 0.1000000000 0.1000000000 0.1000000000 0.1000000000 0.1000000000 0.1000000000 0.1000000000 0.1000000000 0.1000000000 0.1000000000 0.1000000000 0.1000000000 0.1000000000 0.1000000000 0.1000000000 0.1000000000 0.1000000000 0.1000000000 0.1000000000 0.1000000000 0.1000000000 0.1000000000 0.1000000000 0.1000000000 0.1000000000 0.1000000000 0.1000000000 0.1000000000 0.1000000000 0.1000000000 0.1000000000 0.1000000000 0.1000000000 0.1000000000 0.1000000000 0.1000000000 0.1000000000 0.1000000000 0.1000000000 0.1000000000 0.1000000000 0.1000000000 0.1000000000 0.1000000000 0.1000000000 0.1000000000 0.1000000000 0.1000000000 0.1000000000 0.1000000000 0.1000000000 0.1000000000 0.1000000000 0.1000000000 0.1000000000 0.1000000000 0.1000000000 0.1000000000 0.1000000000 0.1000000000 0.1000000000 0.1000000000 0.1000000000 0.1000000000 0.1000000000 0.1000000000 0.1000000000 0.1000000000 0.1000000000 0.1000000000 0.1000000000 0.1000000000 0.1000000000 0.1000000000 0.1000000000 0.1000000000 0.1000000000 0.1000000000 0.1000000000 0.1000000000 0.1000000000 0.1000000000 0.1000000000 0.1000000000 0.1000000000 0.1000000000 0.1000000000 0.1000000000 0.1000000000 0.1000000000 0.1000000000 0.1000000000 0.1000000000 0.1000000000 0.1000000000 0.1000000000 0.1000000000 0.1000000000 0.1000000000 0.1000000000 0.1000000000 0.1000000000 0.1000000000 0.1000000000 0.1000000000 0.1000000000 0.1000000000 0.1000000000 0.1000000000 0.1000000000 0.1000000000 0.1000000000 0.1000000000 0.1000000000 0.1000000000 0.1000000000 0.1000000000 0.1000000000 0.1000000000 0.1000000000 0.1000000000 0.1000000000 0.1000000000 0.1000000000 0.1000000000 0.1000000000 0.1000000000 0.1000000000 0.1000000000 0.1000000000 0.1000000000 0.1000000000 0.1000000000 0.1000000000 0.1000000000 0.1000000000 0.1000000000 0.1000000000 0.1000000000 0.1000000000 0.1000000000 0.1000000000 0.1000000000 0.1000000000 0.1000000000 0.1000000000 0.1000000000 0.1000000000 0.1000000000 0.1000000000 0.1000000000 0.1000000000 0.1000000000 0.1000000000 0.1000000000 0.1000000000 0.1000000000 0.1000000000 0.1000000000 0.1000000000 0.1000000000 0.1000000000 0.1000000000 0.1000000000 0.1000000000 0.1000000000 0.1000000000 0.1000000000 0.1000000000 0.1000000000 0.1000000000 0.1000000000 0.1000000000 0.1000000000 0.1000000000 0.1000000000 0.1000000000 0.1000000000 0.1000000000 0.1000000000 0.1000000000 0.1000000000 0.1000000000 0.1000000000 0.1000000000 0.1000000000 0.1000000000 0.1000000000 0.1000000000 0.1000000000 0.1000000000 0.1000000000 0.1000000000 0.1000000000 0.1000000000 0.1000000000 0.1000000000 0.1000000000 0.1000000000 0.1000000000 0.1000000000 0.1000000000 0.1000000000 0.1000000000 0.1000000000 0.1000000000 0.1000000000 0.1000000000 0.1000000000 0.1000000000 0.1000000000 0.1000000000 0.1000000000 0.1000000000 0.1000000000 0.1000000000 0.1000000000 0.1000000000 0.1000000000 0.1000000000 0.1000000000 0.1000000000 0.1000000000 0.1000000000 0.1000000000 0.1000000000 0.1000000000 0.1000000000 0.1000000000 0.1000000000 0.1000000000 0.1000000000 0.1000000000 0.1000000000 0.1000000000 0.1000000000 0.1000000000 0.1000000000 0.1000000000 0.1000000000 0.1000000000 0.1000000000 0.1000000000 0.1000000000 0.1000000000 0.1000000000 0.1000000000 0.1000000000 0.1000000000 0.1000000000 0.1000000000 0.1000000000 0.1000000000 0.1000000000 0.1000000000 0.1000000000 0.1000000000 0.1000000000 0.1000000000 0.1000000000 0.1000000000 0.1000000000 0.1000000000 0.1000000000 0.1000000000 0.1000000000 0.1000000000 0.1000000000 0.1000000000 0.1000000000 0.1000000000 0.1000000000 0.1000000000 0.1000000000 0.1000000000 0.1000000000 0.1000000000 0.1000000000 0.1000000000 0.1000000000 0.1000000000 0.1000000000 0.1000000000 0.1000000000 0.1000000000 0.1000000000 0.1000000000 0.1000000000 0.1000000000 0.1000000000 0.1000000000 0.1000000000 0.1000000000 0.1000000000 0.1000000000 0.1000000000 0.1000000000 0.1000000000 0.1000000000 0.1000000000 0.1000000000 0.1000000000 0.1000000000 0.1000000000 0.1000000000 0.1000000000 0.1000000000 0.1000000000 0.1000000000 0.1000000000 0.1000000000 0.1000000000 0.1000000000 0.1000000000 0.1000000000 0.1000000000 0.1000000000 0.1000000000 0.1000000000 0.1000000000 0.1000000000 0.1000000000 0.1000000000 0.1000000000 0.1000000000 0.1000000000 0.1000000000 0.1000000000 0.1000000000 0.1000000000 0.1000000000 0.1000000000 0.1000000000 0.1000000000 0.1000000000 0.1000000000 0.1000000000 0.1000000000 0.1000000000 0.1000000000 0.1000000000 0.1000000000 0.1000000000 0.1000000000 0.1000000000 0.1000000000 0.1000000000 0.1000000000 0.1000000000 0.1000000000 0.1000000000 0.1000000000 0.1000000000 0.1000000000 0.1000000000 0.1000000000 0.1000000000 0.1000000000 0.1000000000 0.1000000000 0.1000000000 0.1000000000 0.1000000000 0.1000000000 0.1000000000 0.1000000000 0.1000000000 0.1000000000 0.1000000000 0.1000000000 0.1000000000 0.1000000000 0.1000000000 0.1000000000 0.1000000000 0.1000000000 0.1000000000 0.1000000000 0.1000000000 0.1000000000 0.1000000000 0.1000000000 0.1000000000 0.1000000000 0.1000000000 0.1000000000 0.1000000000 0.1000000000 0.1000000000 0.1000000000 0.1000000000 0.1000000000 0.1000000000 0.1000000000 0.1000000000 0.1000000000 0.1000000000 0.1000000000 0.1000000000 0.1000000000 0.1000000000 0.1000000000 0.1000000000 0.1000000000 0.1000000000 0.1000000000 0.1000000000 0.1000000000 0.1000000000 0.1000000000 0.1000000000 0.1000000000 0.1000000000 0.1000000000 0.1000000000 0.1000000000 0.1000000000 0.1000000000 0.1000000000 0.1000000000 0.1000000000 0.1000000000 0.1000000000 0.1000000000 0.1000000000 0.1000000000 0.1000000000 0.1000000000 0.1000000000 0.1000000000 0.1000000000 0.1000000000 0.1000000000 0.1000000000 0.1000000000 0.1000000000 0.1000000000 0.1000000000 0.1000000000 0.1000000000 0.1000000000 0.1000000000 0.1000000000 0.1000000000 0.1000000000 0.1000000000 0.1000000000 0.1000000000 0.1000000000 0.1000000000 0.1000000000 0.1000000000 0.1000000000 0.1000000000 0.1000000000 0.1000000000 0.1000000000 0.1000000000 0.1000000000 0.1000000000 0.1000000000 0.1000000000 0.1000000000 0.1000000000 0.1000000000 0.1000000000 0.1000000000 0.1000000000 0.1000000000 0.1000000000 0.1000000000 0.1000000000 0.1000000000 0.1000000000 0.1000000000 0.1000000000 0.1000000000 0.1000000000 0.1000000000 0.1000000000 0.1000000000 0.1000000000 0.1000000000 0.1000000000 0.1000000000 0.1000000000 0.1000000000 0.1000000000 0.1000000000 0.1000000000 0.1000000000 0.1000000000 0.1000000000 0.1000000000 0.1000000000 0.1000000000 0.1000000000 0.1000000000 0.1000000000 0.1000000000 0.1000000000 0.1000000000 0.1000000000 0.1000000000 0.1000000000 0.1000000000 0.1000000000 0.1000000000 0.1000000000 0.1000000000 0.1000000000 0.1000000000 0.1000000000 0.1000000000 0.1000000000 0.1000000000 0.1000000000 0.1000000000 0.1000000000 0.1000000000 0.1000000000 0.1000000000 0.1000000000 0.1000000000 0.1000000000 0.1000000000 0.1000000000 0.1000000000 0.1000000000 0.1000000000 0.1000000000 0.1000000000 0.1000000000 0.1000000000 0.1000000000 0.1000000000 0.1000000000 0.1000000000 0.1000000000 0.1000000000 0.1000000000 0.1000000000 0.1000000000 0.1000000000 0.1000000000 0.1000000000 0.1000000000 0.1000000000 0.1000000000 0.1000000000 0.1000000000 0.1000000000 0.1000000000 0.1000000000 0.1000000000 0.1000000000 0.1000000000 0.1000000000 0.1000000000 0.1000000000 0.1000000000 0.1000000000 0.1000000000 0.1000000000 0.1000000000 0.1000000000 0.1000000000 0.1000000000 0.1000000000 0.1000000000 0.1000000000 0.1000000000 0.1000000000 0.1000000000 0.1000000000 0.1000000000 0.1000000000 0.1000000000 0.1000000000 0.1000000000 0.1000000000 0.1000000000 0.1000000000 0.1000000000 0.1000000000 0.1000000000 0.1000000000 0.1000000000 0.1000000000 0.1000000000 0.1000000000 0.1000000000 0.1000000000 0.1000000000 0.1000000000 0.1000000000 0.1000000000 0.1000000000 0.1000000000 0.1000000000 0.1000000000 0.1000000000 0.1000000000 0.1000000000 0.1000000000 0.1000000000 0.1000000000 0.1000000000 0.1000000000 0.1000000000 0.1000000000 0.1000000000 0.1000000000 0.1000000000 0.1000000000 0.1000000000 0.1000000000 0.1000000000 0.1000000000 0.1000000000 0.1000000000 0.1000000000 0.1000000000 0.1000000000 0.1000000000 0.1000000000 0.1000000000 0.1000000000 0.1000000000 0.1000000000 0.1000000000 0.1000000000 0.1000000000 0.1000000000 0.1000000000 0.1000000000 0.1000000000 0.1000000000 0.1000000000 0.1000000000 0.1000000000 0.1000000000 0.1000000000 0.1000000000 0.1000000000 0.1000000000 0.1000000000 0.1000000000 0.1000000000 0.1000000000 0.1000000000 0.1000000000 0.1000000000 0.1000000000 0.1000000000 0.1000000000 0.1000000000 0.1000000000 0.1000000000 0.1000000000 0.1000000000 0.1000000000 0.1000000000 0.1000000000 0.1000000000 0.1000000000 0.1000000000 0.1000000000 0.1000000000 0.1000000000 0.1000000000 0.1000000000 0.1000000000 0.1000000000 0.1000000000 0.1000000000 0.1000000000 0.1000000000 0.1000000000 0.1000000000 0.1000000000 0.1000000000 0.1000000000 0.1000000000 0.1000000000 0.1000000000 0.1000000000 0.1000000000 0.1000000000 0.1000000000 0.1000000000 0.1000000000 0.1000000000 0.1000000000 0.1000000000 0.1000000000 0.1000000000 0.1000000000 0.1000000000 0.1000000000 0.1000000000 0.1000000000 0.1000000000 0.1000000000 0.1000000000 0.1000000000 0.1000000000 0.1000000000 0.1000000000 0.1000000000 0.1000000000 0.1000000000 0.1000000000 0.1000000000 0.1000000000 0.1000000000 0.1000000000 0.1000000000 0.1000000000 0.1000000000 0.1000000000 0.1000000000 0.1000000000 0.1000000000 0.1000000000 0.1000000000 0.1000000000 0.1000000000 0.1000000000 0.1000000000 0.1000000000 0.1000000000 0.1000000000 0.1000000000 0.1000000000 0.1000000000 0.1000000000 0.1000000000 0.1000000000 0.1000000000 0.1000000000 0.1000000000 0.1000000000 0.1000000000 0.1000000000 0.1000000000 0.1000000000 0.1000000000 0.1000000000 0.1000000000 0.1000000000 0.1000000000 0.1000000000 0.1000000000 0.1000000000 0.1000000000 0.1000000000 0.1000000000 0.1000000000 0.1000000000 0.1000000000 0.1000000000 0.1000000000 0.1000000000 0.1000000000 0.1000000000 0.1000000000 0.1000000000 0.1000000000 0.1000000000 0.1000000000 0.1000000000 0.1000000000 0.1000000000 0.1000000000 0.1000000000 0.1000000000 0.1000000000 0.1000000000 0.1000000000 0.1000000000 0.1000000000 0.1000000000 0.1000000000 0.1000000000 0.1000000000 0.1000000000 0.1000000000 0.1000000000 0.1000000000 0.1000000000 0.1000000000 0.1000000000 0.1000000000 0.1000000000 0.1000000000 0.1000000000 0.1000000000 0.1000000000 0.1000000000 0.1000000000 0.1000000000 0.1000000000 0.1000000000 0.1000000000 0.1000000000 0.1000000000 0.1000000000 0.1000000000 0.1000000000 0.1000000000 0.1000000000 0.1000000000 0.1000000000 0.1000000000 0.1000000000 0.1000000000 0.1000000000 0.1000000000 0.1000000000 0.1000000000 0.1000000000 0.1000000000 0.1000000000 0.1000000000 0.1000000000 0.1000000000 0.1000000000 0.1000000000 0.1000000000 0.1000000000 0.1000000000 0.1000000000 0.1000000000 0.1000000000 0.1000000000 0.1000000000 0.1000000000 0.1000000000 0.1000000000 0.1000000000 0.1000000000 0.1000000000 0.1000000000 0.1000000000 0.1000000000 0.1000000000 0.1000000000 0.1000000000 0.1000000000 0.1000000000 0.1000000000 0.1000000000 0.1000000000 0.1000000000 0.1000000000 0.1000000000 0.1000000000 0.1000000000 0.1000000000 0.1000000000 0.1000000000 0.1000000000 0.1000000000 0.1000000000 0.1000000000 0.1000000000 0.1000000000 0.1000000000 0.1000000000 0.1000000000 0.1000000000 0.1000000000 0.1000000000 0.1000000000 0.1000000000 0.1000000000 0.1000000000 0.1000000000 0.1000000000 0.1000000000 0.1000000000 0.1000000000 0.1000000000 0.1000000000 0.1000000000 0.1000000000 0.1000000000 0.1000000000 0.1000000000 0.1000000000 0.1000000000 0.1000000000 0.1000000000 0.1000000000 0.1000000000 0.1000000000 0.1000000000 0.1000000000 0.1000000000 0.1000000000 0.1000000000 0.1000000000 0.1000000000 0.1000000000 0.1000000000 0.1000000000 0.1000000000 0.1000000000 0.1000000000 0.1000000000 0.1000000000 0.1000000000 0.1000000000 0.1000000000 0.1000000000 0.1000000000 0.1000000000 0.1000000000 0.1000000000 0.1000000000 0.1000000000 0.1000000000 0.1000000000 0.1000000000 0.1000000000 0.1000000000 0.1000000000 0.1000000000 0.1000000000 0.1000000000 0.1000000000 0.1000000000 0.1000000000 0.1000000000 0.1000000000 0.1000000000 0.1000000000 0.1000000000 0.1000000000 0.1000000000 0.1000000000 0.1000000000 0.1000000000 0.1000000000 0.1000000000 0.1000000000 0.1000000000 0.1000000000 0.1000000000 0.1000000000 0.1000000000 0.1000000000 0.1000000000 0.1000000000 0.1000000000 0.1000000000 0.1000000000 0.1000000000 0.1000000000 0.1000000000 0.1000000000 0.1000000000 0.1000000000 0.1000000000 0.1000000000 0.1000000000 0.1000000000 0.1000000000 0.1000000000 0.1000000000 0.1000000000 0.1000000000 0.1000000000 0.1000000000 0.1000000000 0.1000000000 0.1000000000 0.1000000000 0.1000000000 0.1000000000 0.1000000000 0.1000000000 0.1000000000 0.1000000000 0.1000000000 0.1000000000 0.1000000000 0.1000000000 0.1000000000 0.1000000000 0.1000000000 0.1000000000 0.1000000000 0.1000000000 0.1000000000 0.1000000000 0.1000000000 0.1000000000 0.1000000000 0.1000000000 0.1000000000 0.1000000000 0.1000000000 0.1000000000 0.1000000000 0.1000000000 0.1000000000 0.1000000000 0.1000000000 0.1000000000 0.1000000000 0.1000000000 0.1000000000 0.1000000000 0.1000000000 0.1000000000 0.1000000000 0.1000000000 0.1000000000 0.1000000000 0.1000000000 0.1000000000 0.1000000000 0.1000000000 0.1000000000 0.1000000000 0.1000000000 0.1000000000 0.1000000000 0.1000000000 0.1000000000 0.1000000000 0.1000000000 0.1000000000 0.1000000000 0.1000000000 0.1000000000 0.1000000000 0.1000000000 0.1000000000 0.1000000000 0.1000000000 0.1000000000 0.1000000000 0.1000000000 0.1000000000 0.1000000000 0.1000000000 0.1000000000 0.1000000000 0.1000000000 0.1000000000 0.1000000000 0.1000000000 0.1000000000 0.1000000000 0.1000000000 0.1000000000 0.1000000000 0.1000000000 0.1000000000 0.1000000000 0.1000000000 0.1000000000 0.1000000000 0.1000000000 0.1000000000 0.1000000000 0.1000000000 0.1000000000 0.1000000000 0.1000000000 0.1000000000 0.1000000000 0.1000000000 0.1000000000 0.1000000000 0.1000000000 0.1000000000 0.1000000000 0.1000000000 0.1000000000 0.1000000000 0.1000000000 0.1000000000 0.1000000000 0.1000000000 0.1000000000 0.1000000000 0.1000000000 0.1000000000 0.1000000000 0.1000000000 0.1000000000 0.1000000000 0.1000000000 0.1000000000 0.1000000000 0.1000000000 0.1000000000 0.1000000000 0.1000000000 0.1000000000 0.1000000000 0.1000000000 0.1000000000 0.1000000000 0.1000000000 0.1000000000 0.1000000000 0.1000000000 0.1000000000 0.1000000000 0.1000000000 0.1000000000 0.1000000000 0.1000000000 0.1000000000 0.1000000000 0.1000000000 0.1000000000 0.1000000000 0.1000000000 0.1000000000 0.1000000000 0.1000000000 0.1000000000 0.1000000000 0.1000000000 0.1000000000 0.1000000000 0.1000000000 0.1000000000 0.1000000000 0.1000000000 0.1000000000 0.1000000000 0.1000000000 0.1000000000 0.1000000000 0.1000000000 0.1000000000 0.1000000000 0.1000000000 0.1000000000 0.1000000000 0.1000000000 0.1000000000 0.1000000000 0.1000000000 0.1000000000 0.1000000000 0.1000000000 0.1000000000 0.1000000000 0.1000000000 0.1000000000 0.1000000000 0.1000000000 0.1000000000 0.1000000000 0.1000000000 0.1000000000 0.1000000000 0.1000000000 0.1000000000 0.1000000000 0.1000000000 0.1000000000 0.1000000000 0.1000000000 0.1000000000 0.1000000000 0.1000000000 0.1000000000 0.1000000000 0.1000000000 0.1000000000 0.1000000000 0.1000000000 0.1000000000 0.1000000000 0.1000000000 0.1000000000 0.1000000000 0.1000000000 0.1000000000 0.1000000000 0.1000000000 0.1000000000 0.1000000000 0.1000000000 0.1000000000 0.1000000000 0.1000000000 0.1000000000 0.1000000000 0.10000000