<?xml version="1.0"?>
<VTKFile type="UnstructuredGrid" version="0.1" byte_order="LittleEndian">
  <UnstructuredGrid>
    <FieldData>
      <DataArray type="Float32" Name="TIME"  NumberOfTuples="1" format="ascii"> 1.4000000000 </DataArray>
      <DataArray type="Int32"   Name="STEP"  NumberOfTuples="1" format="ascii"> 350000 </DataArray>
    </FieldData>
    <Piece NumberOfPoints="11600" NumberOfCells="11600">
      <Points>
        <DataArray type="Float32" NumberOfComponents="3" format="ascii">
 -0.2252755171 -0.4920165695 0.0000008569 -0.0252945049 -0.4892607408 0.0000008181 0.1746865107 -0.4865049104 0.0000007769 0.3746675240 -0.4837490789 0.0000007140 0.5746485392 -0.4809932474 0.0000006683 0.7746295530 -0.4782374164 0.0000006271 0.9746105670 -0.4754815849 0.0000005899 1.1745915815 -0.4727257531 0.0000005491 1.3745725956 -0.4699699200 0.0000004678 1.5745536099 -0.4672140855 0.0000003705 1.7745346224 -0.4644582498 0.0000002585 1.9745156347 -0.4617024134 0.0000001391 2.1744966468 -0.4589465766 0.0000000175 2.3744776559 -0.4561907394 -0.0000001046 2.5744586665 -0.4534349026 -0.0000002068 2.7744396759 -0.4506790668 -0.0000003024 2.9744206846 -0.4479232318 -0.0000003933 3.1744016939 -0.4451673982 -0.0000004792 3.3743826995 -0.4424115655 -0.0000005613 3.5743637092 -0.4396557336 -0.0000006344 3.7743447185 -0.4368999025 -0.0000007025 3.9743257284 -0.4341440721 -0.0000007666 4.1743067394 -0.4313882427 -0.0000008290 4.3742877488 -0.4286324140 -0.0000008984 4.5742687606 -0.4258765855 -0.0000009806 4.7742497725 -0.4231207576 -0.0000010774 4.9742307847 -0.4203649293 -0.0000011850 5.1742117982 -0.4176091011 -0.0000012944 5.3741928118 -0.4148532719 -0.0000014173 5.5741738272 -0.4120974419 -0.0000014864 5.7741548427 -0.4093416115 -0.0000015289 5.9741358590 -0.4065857806 -0.0000015414 6.1741168759 -0.4038299493 -0.0000015307 6.3740979045 -0.4010741147 -0.0000014752 6.5740789207 -0.3983182766 -0.0000014496 6.7740599359 -0.3955624386 -0.0000014307 6.9740409506 -0.3928066007 -0.0000014171 7.1740219656 -0.3900507636 -0.0000013998 7.3740029834 -0.3872949254 -0.0000013580 7.5739839983 -0.3845390876 -0.0000012952 7.7739650122 -0.3817832504 -0.0000012268 7.9739460261 -0.3790274134 -0.0000011643 8.1739270404 -0.3762715769 -0.0000011158 8.3739080556 -0.3735157403 -0.0000011012 8.5738890706 -0.3707599043 -0.0000010786 8.7738700856 -0.3680040685 -0.0000010469 8.9738511015 -0.3652482316 -0.0000010039 9.1738321180 -0.3624923939 -0.0000009579 9.3738131419 -0.3597365529 -0.0000009244 9.5737941571 -0.3569807123 -0.0000009273 9.7737751720 -0.3542248727 -0.0000009494 9.9737561872 -0.3514690326 -0.0000009837 10.1737372022 -0.3487131918 -0.0000010207 10.3737182187 -0.3459573504 -0.0000010558 10.5736992323 -0.3432015091 -0.0000010828 10.7736802451 -0.3404456683 -0.0000011111 10.9736612571 -0.3376898279 -0.0000011443 11.1736422694 -0.3349339885 -0.0000011828 11.3736232795 -0.3321781502 -0.0000012271 11.5736042914 -0.3294223132 -0.0000012495 11.7735853024 -0.3266664770 -0.0000012606 11.9735663132 -0.3239106412 -0.0000012604 12.1735473242 -0.3211548064 -0.0000012489 12.3735283315 -0.3183989732 -0.0000012238 12.5735093423 -0.3156431421 -0.0000011813 12.7734903499 -0.3128873129 -0.0000011336 12.9734713608 -0.3101314838 -0.0000010943 13.1734523724 -0.3073756566 -0.0000010673 13.3734333828 -0.3046198291 -0.0000010654 13.5734143981 -0.3018640009 -0.0000010791 13.7733954108 -0.2991081683 -0.0000011077 13.9921312265 -0.2921346004 0.0000000000 14.1921306983 -0.2925940365 0.0000000000 14.3921301700 -0.2930534723 0.0000000000 14.5921296443 -0.2935129075 0.0000000000 14.7921291162 -0.2939723436 0.0000000000 14.9921285891 -0.2944317788 0.0000000000 15.1921280620 -0.2948912147 0.0000000000 15.3921275339 -0.2953506502 0.0000000000 15.5921270076 -0.2958100857 0.0000000000 15.7921264796 -0.2962695214 0.0000000000 15.9921259527 -0.2967289569 -0.0000000000 16.1921254255 -0.2971883921 -0.0000000000 16.4378454801 -0.2206137934 0.0000000151 16.6378208121 -0.2174725764 0.0000000148 16.8377961433 -0.2143313590 0.0000000146 17.0377714760 -0.2111901407 0.0000000144 17.2377468067 -0.2080489222 0.0000000141 17.4377221371 -0.2049077034 0.0000000138 17.6376974686 -0.2017664851 0.0000000135 17.8376727980 -0.1986252670 0.0000000131 18.0376481287 -0.1954840493 0.0000000127 18.2376234586 -0.1923428320 0.0000000123 18.4375987885 -0.1892016148 0.0000000119 18.6375741198 -0.1860603979 0.0000000116 18.8375494489 -0.1829191813 0.0000000113 19.0375247804 -0.1797779645 0.0000000111 19.2375001105 -0.1766367482 0.0000000108 19.4374754406 -0.1734955318 0.0000000106 19.6374507702 -0.1703543153 0.0000000103 -0.1276716286 -0.3174500202 0.0000006843 0.0723093834 -0.3146941906 0.0000006518 0.2722903977 -0.3119383593 0.0000006143 0.4722714123 -0.3091825277 0.0000005764 0.6722524258 -0.3064266964 0.0000005450 0.8722334394 -0.3036708649 0.0000005189 1.0722144528 -0.3009150329 0.0000004925 1.2721954667 -0.2981592005 0.0000004511 1.4721764804 -0.2954033668 0.0000003797 1.6721574926 -0.2926475316 0.0000002880 1.8721385045 -0.2898916954 0.0000001840 2.0721195160 -0.2871358584 0.0000000739 2.2721005271 -0.2843800210 -0.0000000364 2.4720815377 -0.2816241842 -0.0000001385 2.6720625476 -0.2788683479 -0.0000002324 2.8720435572 -0.2761125122 -0.0000003219 3.0720245663 -0.2733566776 -0.0000004081 3.2720055751 -0.2706008442 -0.0000004908 3.4719865842 -0.2678450124 -0.0000005676 3.6719675936 -0.2650891810 -0.0000006382 3.8719486037 -0.2623333503 -0.0000007029 4.0719296142 -0.2595775203 -0.0000007625 4.2719106252 -0.2568216913 -0.0000008196 4.4718916367 -0.2540658631 -0.0000008824 4.6718726483 -0.2513100351 -0.0000009563 4.8718536604 -0.2485542070 -0.0000010422 5.0718346728 -0.2457983787 -0.0000011353 5.2718156862 -0.2430425502 -0.0000012279 5.4717967006 -0.2402867209 -0.0000013024 5.6717777154 -0.2375308910 -0.0000013527 5.8717587312 -0.2347750605 -0.0000013798 6.0717397478 -0.2320192294 -0.0000013863 6.2717207671 -0.2292633972 -0.0000013763 6.4717017862 -0.2265075600 -0.0000013610 6.6716828024 -0.2237517220 -0.0000013511 6.8716638181 -0.2209958840 -0.0000013438 7.0716448333 -0.2182400464 -0.0000013328 7.2716258496 -0.2154842088 -0.0000013076 7.4716068658 -0.2127283706 -0.0000012593 7.6715878804 -0.2099725332 -0.0000011996 7.8715688949 -0.2072166961 -0.0000011398 8.0715499092 -0.2044608592 -0.0000010886 8.2715309243 -0.2017050227 -0.0000010514 8.4715119395 -0.1989491863 -0.0000010227 8.6714929543 -0.1961933507 -0.0000009878 8.8714739696 -0.1934375144 -0.0000009430 9.0714549855 -0.1906816769 -0.0000008934 9.2714360036 -0.1879258381 -0.0000008520 9.4714170216 -0.1851699966 -0.0000008390 9.6713980372 -0.1824141567 -0.0000008517 9.8713790524 -0.1796583168 -0.0000008808 10.0713600672 -0.1769024762 -0.0000009166 10.2713410826 -0.1741466352 -0.0000009502 10.4713220975 -0.1713907934 -0.0000009758 10.6713031111 -0.1686349524 -0.0000009975 10.8712841244 -0.1658791118 -0.0000010216 11.0712651368 -0.1631232717 -0.0000010515 11.2712461492 -0.1603674327 -0.0000010860 11.4712271614 -0.1576115951 -0.0000011144 11.6712081732 -0.1548557586 -0.0000011318 11.8711891848 -0.1520999227 -0.0000011388 12.0711701958 -0.1493440871 -0.0000011350 12.2711512069 -0.1465882525 -0.0000011177 12.4711322175 -0.1438324211 -0.0000010816 12.6711132279 -0.1410765904 -0.0000010347 12.8710942385 -0.1383207619 -0.0000009868 13.0710752492 -0.1355649343 -0.0000009472 13.2710562610 -0.1328091063 -0.0000009240 13.4710372730 -0.1300532800 -0.0000009233 13.6710182854 -0.1272974505 -0.0000009353 13.8925293711 -0.1187002619 0.0000000000 14.0925288448 -0.1191596960 0.0000000000 14.2925283175 -0.1196191316 0.0000000000 14.4925277902 -0.1200785678 0.0000000000 14.6925272629 -0.1205380033 0.0000000000 14.8925267356 -0.1209974391 0.0000000000 15.0925262081 -0.1214568748 0.0000000000 15.2925256806 -0.1219163102 0.0000000000 15.4925251536 -0.1223757462 -0.0000000000 15.6925246262 -0.1228351812 -0.0000000000 15.8925240991 -0.1232946166 -0.0000000000 16.0925235691 -0.1237540543 -0.0000000000 16.3351374433 -0.0490006868 0.0000000147 16.5351127723 -0.0458594702 0.0000000145 16.7350881038 -0.0427182527 0.0000000142 16.9350634355 -0.0395770349 0.0000000140 17.1350387665 -0.0364358164 0.0000000137 17.3350140973 -0.0332945978 0.0000000134 17.5349894279 -0.0301533793 0.0000000131 17.7349647589 -0.0270121607 0.0000000128 17.9349400894 -0.0238709429 0.0000000124 18.1349154197 -0.0207297255 0.0000000120 18.3348907499 -0.0175885084 0.0000000116 18.5348660802 -0.0144472915 0.0000000112 18.7348414111 -0.0113060743 0.0000000109 18.9348167419 -0.0081648578 0.0000000106 19.1347920722 -0.0050236413 0.0000000103 19.3347674025 -0.0018824249 0.0000000101 19.5347427327 0.0012587914 0.0000000098 19.7347180619 0.0044000076 0.0000000096 -0.2300487551 -0.1456392998 0.0000005460 -0.0300677421 -0.1428834696 0.0000005245 0.1699132721 -0.1401276389 0.0000005006 0.3698942845 -0.1373718072 0.0000004755 0.5698752988 -0.1346159753 0.0000004544 0.7698563117 -0.1318601435 0.0000004387 0.9698373249 -0.1291043119 0.0000004257 1.1698183385 -0.1263484798 0.0000004067 1.3697993504 -0.1235926462 0.0000003661 1.5697803631 -0.1208368119 0.0000002980 1.7697613752 -0.1180809760 0.0000002126 1.9697423867 -0.1153251394 0.0000001166 2.1697233983 -0.1125693023 0.0000000166 2.3697044079 -0.1098134650 -0.0000000800 2.5696854189 -0.1070576286 -0.0000001702 2.7696664292 -0.1043017926 -0.0000002561 2.9696474392 -0.1015459575 -0.0000003390 3.1696284493 -0.0987901235 -0.0000004188 3.3696094575 -0.0960342907 -0.0000004963 3.5695904678 -0.0932784591 -0.0000005679 3.7695714781 -0.0905226281 -0.0000006345 3.9695524888 -0.0877667978 -0.0000006947 4.1695335001 -0.0850109683 -0.0000007490 4.3695145106 -0.0822551395 -0.0000007986 4.5694955226 -0.0794993113 -0.0000008540 4.7694765347 -0.0767434835 -0.0000009181 4.9694575471 -0.0739876555 -0.0000009907 5.1694385601 -0.0712318270 -0.0000010652 5.3694195731 -0.0684759986 -0.0000011314 5.5694005876 -0.0657201690 -0.0000011808 5.7693816026 -0.0629643389 -0.0000012151 5.9693626181 -0.06
[...]
      <PointData Scalars="radius">
        <DataArray type="Float32" Name="radius" format="ascii">
 0.1000000000 0.1000000000 0.1000000000 0.1000000000 0.1000000000 0.1000000000 0.1000000000 0.1000000000 0.1000000000 0.1000000000 0.1000000000 0.1000000000 0.1000000000 0.1000000000 0.1000000000 0.1000000000 0.1000000000 0.1000000000 0.1000000000 0.1000000000 0.1000000000 0.1000000000 0.1000000000 0.1000000000 0.1000000000 0.1000000000 0.1000000000 0.1000000000 0.1000000000 0.1000000000 0.1000000000 0.1000000000 0.1000000000 0.1000000000 0.1000000000 0.1000000000 0.1000000000 0.1000000000 0.1000000000 0.1000000000 0.1000000000 0.1000000000 0.1000000000 0.1000000000 0.1000000000 0.1000000000 0.1000000000 0.1000000000 0.1000000000 0.1000000000 0.1000000000 0.1000000000 0.1000000000 0.1000000000 0.1000000000 0.1000000000 0.1000000000 0.1000000000 0.1000000000 0.1000000000 0.1000000000 0.1000000000 0.1000000000 0.1000000000 0.1000000000 0.1000000000 0.1000000000 0.1000000000 0.1000000000 0.1000000000 0.1000000000 0.1000000000 0.1000000000 0.1000000000 0.1000000000 0.1000000000 0.1000000000 0.1000000000 0.1000000000 0.1000000000 0.1000000000 0.1000000000 0.1000000000 0.1000000000 0.1000000000 0.1000000000 0.1000000000 0.1000000000 0.1000000000 0.1000000000 0.1000000000 0.1000000000 0.1000000000 0.1000000000 0.1000000000 0.1000000000 0.1000000000 0.1000000000 0.1000000000 0.1000000000 0.1000000000 0.1000000000 0.1000000000 0.1000000000 0.1000000000 0.1000000000 0.1000000000 0.1000000000 0.1000000000 0.1000000000 0.1000000000 0.1000000000 0.1000000000 0.1000000000 0.1000000000 0.1000000000 0.1000000000 0.1000000000 0.1000000000 0.1000000000 0.1000000000 0.1000000000 0.1000000000 0.1000000000 0.1000000000 0.1000000000 0.1000000000 0.1000000000 0.1000000000 0.1000000000 0.1000000000 0.1000000000 0.1000000000 0.1000000000 0.1000000000 0.1000000000 0.1000000000 0.1000000000 0.1000000000 0.1000000000 0.1000000000 0.1000000000 0.1000000000 0.1000000000 0.1000000000 0.1000000000 0.1000000000 0.1000000000 0.1000000000 0.1000000000 0.1000000000 0.1000000000 0.1000000000 0.1000000000 0.1000000000 0.1000000000 0.1000000000 0.1000000000 0.1000000000 0.1000000000 0.1000000000 0.1000000000 0.1000000000 0.1000000000 0.1000000000 0.1000000000 0.1000000000 0.1000000000 0.1000000000 0.1000000000 0.1000000000 0.1000000000 0.1000000000 0.1000000000 0.1000000000 0.1000000000 0.1000000000 0.1000000000 0.1000000000 0.1000000000 0.1000000000 0.1000000000 0.1000000000 0.1000000000 0.1000000000 0.1000000000 0.1000000000 0.1000000000 0.1000000000 0.1000000000 0.1000000000 0.1000000000 0.1000000000 0.1000000000 0.1000000000 0.1000000000 0.1000000000 0.1000000000 0.1000000000 0.1000000000 0.1000000000 0.1000000000 0.1000000000 0.1000000000 0.1000000000 0.1000000000 0.1000000000 0.1000000000 0.1000000000 0.1000000000 0.1000000000 0.1000000000 0.1000000000 0.1000000000 0.1000000000 0.1000000000 0.1000000000 0.1000000000 0.1000000000 0.1000000000 0.1000000000 0.1000000000 0.1000000000 0.1000000000 0.1000000000 0.1000000000 0.1000000000 0.1000000000 0.1000000000 0.1000000000 0.1000000000 0.1000000000 0.1000000000 0.1000000000 0.1000000000 0.1000000000 0.1000000000 0.1000000000 0.1000000000 0.1000000000 0.1000000000 0.1000000000 0.1000000000 0.1000000000 0.1000000000 0.1000000000 0.1000000000 0.1000000000 0.1000000000 0.1000000000 0.1000000000 0.1000000000 0.1000000000 0.1000000000 0.1000000000 0.1000000000 0.1000000000 0.1000000000 0.1000000000 0.1000000000 0.1000000000 0.1000000000 0.1000000000 0.1000000000 0.1000000000 0.1000000000 0.1000000000 0.1000000000 0.1000000000 0.1000000000 0.1000000000 0.1000000000 0.1000000000 0.1000000000 0.1000000000 0.1000000000 0.1000000000 0.1000000000 0.1000000000 0.1000000000 0.1000000000 0.1000000000 0.1000000000 0.1000000000 0.1000000000 0.1000000000 0.1000000000 0.1000000000 0.1000000000 0.1000000000 0.1000000000 0.1000000000 0.1000000000 0.1000000000 0.1000000000 0.1000000000 0.1000000000 0.1000000000 0.1000000000 0.1000000000 0.1000000000 0.1000000000 0.1000000000 0.1000000000 0.1000000000 0.1000000000 0.1000000000 0.1000000000 0.1000000000 0.1000000000 0.1000000000 0.1000000000 0.1000000000 0.1000000000 0.1000000000 0.1000000000 0.1000000000 0.1000000000 0.1000000000 0.1000000000 0.1000000000 0.1000000000 0.1000000000 0.1000000000 0.1000000000 0.1000000000 0.1000000000 0.1000000000 0.1000000000 0.1000000000 0.1000000000 0.1000000000 0.1000000000 0.1000000000 0.1000000000 0.1000000000 0.1000000000 0.1000000000 0.1000000000 0.1000000000 0.1000000000 0.1000000000 0.1000000000 0.1000000000 0.1000000000 0.1000000000 0.1000000000 0.1000000000 0.1000000000 0.1000000000 0.1000000000 0.1000000000 0.1000000000 0.1000000000 0.1000000000 0.1000000000 0.1000000000 0.1000000000 0.1000000000 0.1000000000 0.1000000000 0.1000000000 0.1000000000 0.1000000000 0.1000000000 0.1000000000 0.1000000000 0.1000000000 0.1000000000 0.1000000000 0.1000000000 0.1000000000 0.1000000000 0.1000000000 0.1000000000 0.1000000000 0.1000000000 0.1000000000 0.1000000000 0.1000000000 0.1000000000 0.1000000000 0.1000000000 0.1000000000 0.1000000000 0.1000000000 0.1000000000 0.1000000000 0.1000000000 0.1000000000 0.1000000000 0.1000000000 0.1000000000 0.1000000000 0.1000000000 0.1000000000 0.1000000000 0.1000000000 0.1000000000 0.1000000000 0.1000000000 0.1000000000 0.1000000000 0.1000000000 0.1000000000 0.1000000000 0.1000000000 0.1000000000 0.1000000000 0.1000000000 0.1000000000 0.1000000000 0.1000000000 0.1000000000 0.1000000000 0.1000000000 0.1000000000 0.1000000000 0.1000000000 0.1000000000 0.1000000000 0.1000000000 0.1000000000 0.1000000000 0.1000000000 0.1000000000 0.1000000000 0.1000000000 0.1000000000 0.1000000000 0.1000000000 0.1000000000 0.1000000000 0.1000000000 0.1000000000 0.1000000000 0.1000000000 0.1000000000 0.1000000000 0.1000000000 0.1000000000 0.1000000000 0.1000000000 0.1000000000 0.1000000000 0.1000000000 0.1000000000 0.1000000000 0.1000000000 0.1000000000 0.1000000000 0.1000000000 0.1000000000 0.1000000000 0.1000000000 0.1000000000 0.1000000000 0.1000000000 0.1000000000 0.1000000000 0.1000000000 0.1000000000 0.1000000000 0.1000000000 0.1000000000 0.1000000000 0.1000000000 0.1000000000 0.1000000000 0.1000000000 0.1000000000 0.1000000000 0.1000000000 0.1000000000 0.1000000000 0.1000000000 0.1000000000 0.1000000000 0.1000000000 0.1000000000 0.1000000000 0.1000000000 0.1000000000 0.1000000000 0.1000000000 0.1000000000 0.1000000000 0.1000000000 0.1000000000 0.1000000000 0.1000000000 0.1000000000 0.1000000000 0.1000000000 0.1000000000 0.1000000000 0.1000000000 0.1000000000 0.1000000000 0.1000000000 0.1000000000 0.1000000000 0.1000000000 0.1000000000 0.1000000000 0.1000000000 0.1000000000 0.1000000000 0.1000000000 0.1000000000 0.1000000000 0.1000000000 0.1000000000 0.1000000000 0.1000000000 0.1000000000 0.1000000000 0.1000000000 0.1000000000 0.1000000000 0.1000000000 0.1000000000 0.1000000000 0.1000000000 0.1000000000 0.1000000000 0.1000000000 0.1000000000 0.1000000000 0.1000000000 0.1000000000 0.1000000000 0.1000000000 0.1000000000 0.1000000000 0.1000000000 0.1000000000 0.1000000000 0.1000000000 0.1000000000 0.1000000000 0.1000000000 0.1000000000 0.1000000000 0.1000000000 0.1000000000 0.1000000000 0.1000000000 0.1000000000 0.1000000000 0.1000000000 0.1000000000 0.1000000000 0.1000000000 0.1000000000 0.1000000000 0.1000000000 0.1000000000 0.1000000000 0.1000000000 0.1000000000 0.1000000000 0.1000000000 0.1000000000 0.1000000000 0.1000000000 0.1000000000 0.1000000000 0.1000000000 0.1000000000 0.1000000000 0.1000000000 0.1000000000 0.1000000000 0.1000000000 0.1000000000 0.1000000000 0.1000000000 0.1000000000 0.1000000000 0.1000000000 0.1000000000 0.1000000000 0.1000000000 0.1000000000 0.1000000000 0.1000000000 0.1000000000 0.1000000000 0.1000000000 0.1000000000 0.1000000000 0.1000000000 0.1000000000 0.1000000000 0.1000000000 0.1000000000 0.1000000000 0.1000000000 0.1000000000 0.1000000000 0.1000000000 0.1000000000 0.1000000000 0.1000000000 0.1000000000 0.1000000000 0.1000000000 0.1000000000 0.1000000000 0.1000000000 0.1000000000 0.1000000000 0.1000000000 0.1000000000 0.1000000000 0.1000000000 0.1000000000 0.1000000000 0.1000000000 0.1000000000 0.1000000000 0.1000000000 0.1000000000 0.1000000000 0.1000000000 0.1000000000 0.1000000000 0.1000000000 0.1000000000 0.1000000000 0.1000000000 0.1000000000 0.1000000000 0.1000000000 0.1000000000 0.1000000000 0.1000000000 0.1000000000 0.1000000000 0.1000000000 0.1000000000 0.1000000000 0.1000000000 0.1000000000 0.1000000000 0.1000000000 0.1000000000 0.1000000000 0.1000000000 0.1000000000 0.1000000000 0.1000000000 0.1000000000 0.1000000000 0.1000000000 0.1000000000 0.1000000000 0.1000000000 0.1000000000 0.1000000000 0.1000000000 0.1000000000 0.1000000000 0.1000000000 0.1000000000 0.1000000000 0.1000000000 0.1000000000 0.1000000000 0.1000000000 0.1000000000 0.1000000000 0.1000000000 0.1000000000 0.1000000000 0.1000000000 0.1000000000 0.1000000000 0.1000000000 0.1000000000 0.1000000000 0.1000000000 0.1000000000 0.1000000000 0.1000000000 0.1000000000 0.1000000000 0.1000000000 0.1000000000 0.1000000000 0.1000000000 0.1000000000 0.1000000000 0.1000000000 0.1000000000 0.1000000000 0.1000000000 0.1000000000 0.1000000000 0.1000000000 0.1000000000 0.1000000000 0.1000000000 0.1000000000 0.1000000000 0.1000000000 0.1000000000 0.1000000000 0.1000000000 0.1000000000 0.1000000000 0.1000000000 0.1000000000 0.1000000000 0.1000000000 0.1000000000 0.1000000000 0.1000000000 0.1000000000 0.1000000000 0.1000000000 0.1000000000 0.1000000000 0.1000000000 0.1000000000 0.1000000000 0.1000000000 0.1000000000 0.1000000000 0.1000000000 0.1000000000 0.1000000000 0.1000000000 0.1000000000 0.1000000000 0.1000000000 0.1000000000 0.1000000000 0.1000000000 0.1000000000 0.1000000000 0.1000000000 0.1000000000 0.1000000000 0.1000000000 0.1000000000 0.1000000000 0.1000000000 0.1000000000 0.1000000000 0.1000000000 0.1000000000 0.1000000000 0.1000000000 0.1000000000 0.1000000000 0.1000000000 0.1000000000 0.1000000000 0.1000000000 0.1000000000 0.1000000000 0.1000000000 0.1000000000 0.1000000000 0.1000000000 0.1000000000 0.1000000000 0.1000000000 0.1000000000 0.1000000000 0.1000000000 0.1000000000 0.1000000000 0.1000000000 0.1000000000 0.1000000000 0.1000000000 0.1000000000 0.1000000000 0.1000000000 0.1000000000 0.1000000000 0.1000000000 0.1000000000 0.1000000000 0.1000000000 0.1000000000 0.1000000000 0.1000000000 0.1000000000 0.1000000000 0.1000000000 0.1000000000 0.1000000000 0.1000000000 0.1000000000 0.1000000000 0.1000000000 0.1000000000 0.1000000000 0.1000000000 0.1000000000 0.1000000000 0.1000000000 0.1000000000 0.1000000000 0.1000000000 0.1000000000 0.1000000000 0.1000000000 0.1000000000 0.1000000000 0.1000000000 0.1000000000 0.1000000000 0.1000000000 0.1000000000 0.1000000000 0.1000000000 0.1000000000 0.1000000000 0.1000000000 0.1000000000 0.1000000000 0.1000000000 0.1000000000 0.1000000000 0.1000000000 0.1000000000 0.1000000000 0.1000000000 0.1000000000 0.1000000000 0.1000000000 0.1000000000 0.1000000000 0.1000000000 0.1000000000 0.1000000000 0.1000000000 0.1000000000 0.1000000000 0.1000000000 0.1000000000 0.1000000000 0.1000000000 0.1000000000 0.1000000000 0.1000000000 0.1000000000 0.1000000000 0.1000000000 0.1000000000 0.1000000000 0.1000000000 0.1000000000 0.1000000000 0.1000000000 0.1000000000 0.1000000000 0.1000000000 0.1000000000 0.1000000000 0.1000000000 0.1000000000 0.1000000000 0.1000000000 0.1000000000 0.1000000000 0.1000000000 0.1000000000 0.1000000000 0.1000000000 0.1000000000 0.1000000000 0.1000000000 0.1000000000 0.1000000000 0.1000000000 0.1000000000 0.1000000000 0.1000000000 0.1000000000 0.1000000000 0.1000000000 0.1000000000 0.1000000000 0.1000000000 0.1000000000 0.1000000000 0.1000000000 0.1000000000 0.1000000000 0.1000000000 0.1000000000 0.1000000000 0.1000000000 0.1000000000 0.1000000000 0.1000000000 0.1000000000 0.1000000000 0.1000000000 0.1000000000 0.1000000000 0.1000000000 0.1000000000 0.1000000000 0.1000000000 0.1000000000 0.1000000000 0.1000000000 0.1000000000 0.1000000000 0.1000000000 0.1000000000 0.1000000000 0.1000000000 0.1000000000 0.1000000000 0.1000000000 0.1000000000 0.1000000000 0.1000000000 0.1000000000 0.1000000000 0.1000000000 0.1000000000 0.1000000000 0.1000000000 0.1000000000 0.1000000000 0.1000000000 0.1000000000 0.1000000000 0.1000000000 0.1000000000 0.1000000000 0.1000000000 0.1000000000 0.1000000000 0.1000000000 0.1000000000 0.1000000000 0.1000000000 0.1000000000 0.1000000000 0.1000000000 0.1000000000 0.1000000000 0.1000000000 0.1000000000 0.1000000000 0.1000000000 0.1000000000 0.1000000000 0.1000000000 0.1000000000 0.1000000000 0.1000000000 0.1000000000 0.1000000000 0.1000000000 0.1000000000 0.1000000000 0.1000000000 0.1000000000 0.1000000000 0.1000000000 0.1000000000 0.1000000000 0.1000000000 0.1000000000 0.1000000000 0.1000000000 0.1000000000 0.1000000000 0.1000000000 0.1000000000 0.1000000000 0.1000000000 0.1000000000 0.1000000000 0.1000000000 0.1000000000 0.1000000000 0.1000000000 0.1000000000 0.1000000000 0.1000000000 0.1000000000 0.1000000000 0.1000000000 0.1000000000 0.1000000000 0.1000000000 0.1000000000 0.1000000000 0.1000000000 0.1000000000 0.1000000000 0.1000000000 0.1000000000 0.1000000000 0.1000000000 0.1000000000 0.1000000000 0.1000000000 0.1000000000 0.1000000000 0.1000000000 0.1000000000 0.1000000000 0.1000000000 0.1000000000 0.1000000000 0.1000000000 0.1000000000 0.1000000000 0.1000000000 0.1000000000 0.1000000000 0.1000000000 0.1000000000 0.1000000000 0.1000000000 0.1000000000 0.1000000000 0.1000000000 0.1000000000 0.1000000000 0.1000000000 0.1000000000 0.1000000000 0.1000000000 0.1000000000 0.1000000000 0.1000000000 0.1000000000 0.1000000000 0.1000000000 0.1000000000 0.1000000000 0.1000000000 0.1000000000 0.1000000000 0.1000000000 0.1000000000 0.1000000000 0.1000000000 0.1000000000 0.1000000000 0.1000000000 0.1000000000 0.1000000000 0.1000000000 0.1000000000 0.1000000000 0.1000000000 0.1000000000 0.1000000000 0.1000000000 0.1000000000 0.1000000000 0.1000000000 0.1000000000 0.1000000000 0.1000000000 0.1000000000 0.1000000000 0.1000000000 0.1000000000 0.1000000000 0.1000000000 0.1000000000 0.1000000000 0.1000000000 0.1000000000 0.1000000000 0.1000000000 0.1000000000 0.1000000000 0.1000000000 0.1000000000 0.1000000000 0.1000000000 0.1000000000 0.1000000000 0.1000000000 0.1000000000 0.1000000000 0.1000000000 0.1000000000 0.1000000000 0.1000000000 0.1000000000 0.1000000000 0.1000000000 0.1000000000 0.1000000000 0.1000000000 0.1000000000 0.1000000000 0.1000000000 0.1000000000 0.1000000000 0.1000000000 0.1000000000 0.1000000000 0.1000000000 0.1000000000 0.1000000000 0.1000000000 0.1000000000 0.1000000000 0.1000000000 0.1000000000 0.1000000000 0.1000000000 0.1000000000 0.1000000000 0.1000000000 0.1000000000 0.1000000000 0.1000000000 0.1000000000 0.1000000000 0.1000000000 0.1000000000 0.1000000000 0.1000000000 0.1000000000 0.1000000000 0.1000000000 0.1000000000 0.1000000000 0.1000000000 0.1000000000 0.1000000000 0.1000000000 0.1000000000 0.1000000000 0.1000000000 0.1000000000 0.1000000000 0.1000000000 0.1000000000 0.1000000000 0.1000000000 0.1000000000 0.1000000000 0.1000000000 0.1000000000 0.1000000000 0.1000000000 0.1000000000 0.1000000000 0.1000000000 0.1000000000 0.1000000000 0.1000000000 0.1000000000 0.1000000000 0.1000000000 0.1000000000 0.1000000000 0.1000000000 0.1000000000 0.1000000000 0.1000000000 0.1000000000 0.1000000000 0.1000000000 0.1000000000 0.1000000000 0.1000000000 0.1000000000 0.1000000000 0.1000000000 0.1000000000 0.1000000000 0.1000000000 0.1000000000 0.1000000000 0.1000000000 0.1000000000 0.1000000000 0.1000000000 0.1000000000 0.1000000000 0.1000000000 0.1000000000 0.1000000000 0.1000000000 0.1000000000 0.1000000000 0.1000000000 0.1000000000 0.1000000000 0.1000000000 0.1000000000 0.1000000000 0.1000000000 0.1000000000 0.1000000000 0.1000000000 0.1000000000 0.1000000000 0.1000000000 0.1000000000 0.1000000000 0.1000000000 0.1000000000 0.1000000000 0.1000000000 0.1000000000 0.1000000000 0.1000000000 0.1000000000 0.1000000000 0.1000000000 0.1000000000 0.1000000000 0.1000000000 0.1000000000 0.1000000000 0.1000000000 0.1000000000 0.1000000000 0.1000000000 0.1000000000 0.1000000000 0.1000000000 0.1000000000 0.1000000000 0.1000000000 0.1000000000 0.1000000000 0.1000000000 0.1000000000 0.1000000000 0.1000000000 0.1000000000 0.1000000000 0.1000000000 0.1000000000 0.1000000000 0.1000000000 0.1000000000 0.1000000000 0.1000000000 0.1000000000 0.1000000000 0.1000000000 0.1000000000 0.1000000000 0.1000000000 0.1000000000 0.1000000000 0.1000000000 0.1000000000 0.1000000000 0.1000000000 0.1000000000 0.1000000000 0.1000000000 0.1000000000 0.1000000000 0.1000000000 0.1000000000 0.1000000000 0.1000000000 0.1000000000 0.1000000000 0.1000000000 0.1000000000 0.1000000000 0.1000000000 0.1000000000 0.1000000000 0.1000000000 0.1000000000 0.1000000000 0.1000000000 0.1000000000 0.1000000000 0.1000000000 0.1000000000 0.1000000000 0.1000000000 0.1000000000 0.1000000000 0.1000000000 0.1000000000 0.1000000000 0.1000000000 0.1000000000 0.1000000000 0.1000000000 0.1000000000 0.1000000000 0.1000000000 0.1000000000 0.1000000000 0.1000000000 0.1000000000 0.1000000000 0.1000000000 0.1000000000 0.1000000000 0.1000000000 0.1000000000 0.1000000000 0.1000000000 0.1000000000 0.1000000000 0.1000000000 0.1000000000 0.1000000000 0.1000000000 0.1000000000 0.1000000000 0.1000000000 0.1000000000 0.1000000000 0.1000000000 0.1000000000 0.1000000000 0.1000000000 0.1000000000 0.1000000000 0.1000000000 0.1000000000 0.1000000000 0.1000000000 0.1000000000 0.1000000000 0.1000000000 0.1000000000 0.1000000000 0.1000000000 0.1000000000 0.1000000000 0.1000000000 0.1000000000 0.1000000000 0.1000000000 0.1000000000 0.1000000000 0.1000000000 0.1000000000 0.1000000000 0.1000000000 0.1000000000 0.1000000000 0.1000000000 0.1000000000 0.1000000000 0.1000000000 0.1000000000 0.1000000000 0.1000000000 0.1000000000 0.1000000000 0.1000000000 0.1000000000 0.1000000000 0.1000000000 0.1000000000 0.1000000000 0.1000000000 0.1000000000 0.1000000000 0.1000000000 0.1000000000 0.1000000000 0.1000000000 0.1000000000 0.1000000000 0.1000000000 0.1000000000 0.1000000000 0.1000000000 0.1000000000 0.1000000000 0.1000000000 0.1000000000 0.1000000000 0.1000000000 0.1000000000 0.1000000000 0.1000000000 0.1000000000 0.1000000000 0.1000000000 0.1000000000 0.1000000000 0.1000000000 0.1000000000 0.1000000000 0.1000000000 0.1000000000 0.1000000000 0.1000000000 0.1000000000 0.1000000000 0.1000000000 0.1000000000 0.1000000000 0.1000000000 0.1000000000 0.1000000000 0.1000000000 0.1000000000 0.1000000000 0.1000000000 0.1000000000 0.1000000000 0.1000000000 0.1000000000 0.1000000000 0.1000000000 0.1000000000 0.1000000000 0.1000000000 0.1000000000 0.1000000000 0.1000000000 0.1000000000 0.1000000000 0.1000000000 0.1000000000 0.1000000000 0.1000000000 0.1000000000 0.1000000000 0.1000000000 0.1000000000 0.1000000000 0.1000000000 0.1000000000 0.1000000000 0.1000000000 0.1000000000 0.1000000000 0.1000000000 0.1000000000 0.1000000000 0.1000000000 0.1000000000 0.1000000000 0.1000000000 0.1000000000 0.1000000000 0.1000000000 0.1000000000 0.1000000000 0.1000000000 0.1000000000 0.1000000000 0.1000000000 0.1000000000 0.1000000000 0.1000000000 0.1000000000 0.1000000000 0.1000000000 0.1000000000 0.1000000000 0.1000000000 0.1000000000 0.1000000000 0.1000000000 0.1000000000 0.1000000000 0.1000000000 0.1000000000 0.1000000000 0.1000000000 0.1000000000 0.1000000000 0.1000000000 0.1000000000 0.1000000000 0.1000000000 0.1000000000 0.1000000000 0.1000000000 0.1000000000 0.1000000000 0.1000000000 0.1000000000 0.1000000000 0.1000000000 0.1000000000 0.1000000000 0.1000000000 0.1000000000 0.1000000000 0.1000000000 0.1000000000 0.1000000000 0.1000000000 0.1000000000 0.1000000000 0.1000000000 0.1000000000 0.1000000000 0.1000000000 0.1000000000 0.1000000000 0.1000000000 0.1000000000 0.1000000000 0.1000000000 0.1000000000 0.1000000000 0.1000000000 0.1000000000 0.1000000000 0.1000000000 0.1000000000 0.1000000000 0.1000000000 0.1000000000 0.1000000000 0.1000000000 0.1000000000 0.10000000