<?xml version="1.0"?>
<VTKFile type="UnstructuredGrid" version="0.1" byte_order="LittleEndian">
  <UnstructuredGrid>
    <FieldData>
      <DataArray type="Float32" Name="TIME"  NumberOfTuples="1" format="ascii"> 3.2500000000 </DataArray>
      <DataArray type="Int32"   Name="STEP"  NumberOfTuples="1" format="ascii"> 812500 </DataArray>
    </FieldData>
    <Piece NumberOfPoints="11600" NumberOfCells="11600">
      <Points>
        <DataArray type="Float32" NumberOfComponents="3" format="ascii">
 -0.5958724301 -1.0218476053 -0.0000039080 -0.3959413736 -1.0165966814 -0.0000038199 -0.1960103143 -1.0113457574 -0.0000037299 0.0039207426 -1.0060948331 -0.0000036306 0.2038518019 -1.0008439083 -0.0000035249 0.4037828596 -0.9955929838 -0.0000034119 0.6037139172 -0.9903420590 -0.0000032906 0.8036449758 -0.9850911344 -0.0000031614 1.0035760327 -0.9798402094 -0.0000030114 1.2035070911 -0.9745892842 -0.0000028608 1.4034381484 -0.9693383593 -0.0000027048 1.6033692058 -0.9640874345 -0.0000025445 1.8033002636 -0.9588365099 -0.0000023813 2.0032313200 -0.9535855852 -0.0000022050 2.2031623777 -0.9483346603 -0.0000020400 2.4030934348 -0.9430837360 -0.0000018770 2.6030244918 -0.9378328118 -0.0000017179 2.8029555495 -0.9325818878 -0.0000015640 3.0028866057 -0.9273309637 -0.0000014141 3.2028176635 -0.9220800394 -0.0000012851 3.4027487205 -0.9168291154 -0.0000011670 3.6026797777 -0.9115781914 -0.0000010610 3.8026108355 -0.9063272675 -0.0000009673 4.0025418921 -0.9010763434 -0.0000008896 4.2024729497 -0.8958254191 -0.0000008315 4.4024040070 -0.8905744951 -0.0000007822 4.6023350642 -0.8853235709 -0.0000007405 4.8022661222 -0.8800726469 -0.0000007038 5.0021971788 -0.8748217227 -0.0000006702 5.2021282368 -0.8695707982 -0.0000006402 5.4020592941 -0.8643198741 -0.0000006101 5.6019903514 -0.8590689498 -0.0000005797 5.8019214094 -0.8538180258 -0.0000005489 6.0018524663 -0.8485671015 -0.0000005158 6.2017835244 -0.8433161773 -0.0000004866 6.4017145818 -0.8380652531 -0.0000004588 6.6016456392 -0.8328143290 -0.0000004329 6.8015766974 -0.8275634050 -0.0000004092 7.0015077545 -0.8223124806 -0.0000003868 7.2014388128 -0.8170615561 -0.0000003702 7.4013698702 -0.8118106318 -0.0000003557 7.6013009276 -0.8065597075 -0.0000003436 7.8012319857 -0.8013087832 -0.0000003337 8.0011630429 -0.7960578589 -0.0000003244 8.2010941010 -0.7908069343 -0.0000003195 8.4010251584 -0.7855560100 -0.0000003144 8.6009562158 -0.7803050857 -0.0000003081 8.8008872741 -0.7750541614 -0.0000002996 9.0008183311 -0.7698032372 -0.0000002819 9.2007493893 -0.7645523126 -0.0000002613 9.4006804467 -0.7593013884 -0.0000002352 9.6006115042 -0.7540504641 -0.0000002027 9.8005425622 -0.7487995398 -0.0000001639 10.0004736194 -0.7435486155 -0.0000001099 10.2004046772 -0.7382976909 -0.0000000504 10.4003357345 -0.7330467666 0.0000000151 10.6002667917 -0.7277958422 0.0000000859 10.8001978496 -0.7225449180 0.0000001605 11.0001289060 -0.7172939938 0.0000002459 11.2000599636 -0.7120430698 0.0000003277 11.3999910205 -0.7067921461 0.0000004101 11.5999220775 -0.7015412228 0.0000004917 11.7998531353 -0.6962903001 0.0000005716 11.9997841914 -0.6910393772 0.0000006517 12.1997152497 -0.6857884547 0.0000007257 12.3996463061 -0.6805375329 0.0000007995 12.5995773640 -0.6752866103 0.0000008695 12.7995084225 -0.6700356890 0.0000009388 12.9994394794 -0.6647847673 0.0000010087 13.1993705402 -0.6595338453 0.0000010775 13.3993015974 -0.6542829211 0.0000011463 13.6564252633 -0.6341805440 0.0000000000 13.8564230214 -0.6351273892 0.0000000000 14.0564207794 -0.6360742342 0.0000000000 14.2564185400 -0.6370210786 0.0000000000 14.4564162982 -0.6379679240 0.0000000000 14.6564140574 -0.6389147685 0.0000000000 14.8564118166 -0.6398616138 0.0000000000 15.0564095748 -0.6408084586 0.0000000000 15.2564073349 -0.6417553035 0.0000000000 15.4564050933 -0.6427021486 0.0000000000 15.6564028528 -0.6436489935 0.0000000000 15.8564006119 -0.6445958380 0.0000000000 16.1591199971 -0.4781175290 -0.0000004203 16.3590026579 -0.4712677080 0.0000000173 16.5588853136 -0.4644178911 -0.0000000303 16.7587679754 -0.4575680783 -0.0000004460 16.9586506366 -0.4507182673 -0.0000003063 17.1585332985 -0.4438684560 0.0000002941 17.3584159615 -0.4370186428 -0.0000002161 17.5582986214 -0.4301688308 -0.0000011441 17.7581812855 -0.4233190189 -0.0000005253 17.9580639492 -0.4164692073 -0.0000006765 18.1579466126 -0.4096193958 -0.0000005187 18.3578292772 -0.4027695848 0.0000003174 18.5577119385 -0.3959197750 0.0000000992 18.7575946033 -0.3890699658 0.0000004904 18.9574772678 -0.3822201577 0.0000002776 19.1573599332 -0.3753703487 0.0000000871 19.3572425985 -0.3685205392 0.0000021072 -0.5004543349 -0.8460767698 -0.0000036570 -0.3005232782 -0.8408258462 -0.0000035696 -0.1005922198 -0.8355749217 -0.0000034788 0.0993388389 -0.8303239973 -0.0000033806 0.2992698965 -0.8250730726 -0.0000032759 0.4992009542 -0.8198221478 -0.0000031640 0.6991320117 -0.8145712229 -0.0000030444 0.8990630699 -0.8093202979 -0.0000029151 1.0989941281 -0.8040693731 -0.0000027755 1.2989251855 -0.7988184481 -0.0000026306 1.4988562428 -0.7935675231 -0.0000024813 1.6987873001 -0.7883165981 -0.0000023283 1.8987183577 -0.7830656733 -0.0000021712 2.0986494152 -0.7778147488 -0.0000020129 2.2985804723 -0.7725638243 -0.0000018569 2.4985115294 -0.7673128998 -0.0000017036 2.6984425864 -0.7620619755 -0.0000015542 2.8983736437 -0.7568110513 -0.0000014106 3.0983047011 -0.7515601274 -0.0000012791 3.2982357582 -0.7463092033 -0.0000011592 3.4981668155 -0.7410582792 -0.0000010505 3.6980978726 -0.7358073551 -0.0000009534 3.8980289300 -0.7305564311 -0.0000008698 4.0979599875 -0.7253055071 -0.0000008042 4.2978910447 -0.7200545830 -0.0000007507 4.4978221019 -0.7148036588 -0.0000007058 4.6977531592 -0.7095527346 -0.0000006672 4.8976842167 -0.7043018105 -0.0000006331 5.0976152744 -0.6990508862 -0.0000006028 5.2975463317 -0.6937999621 -0.0000005740 5.4974773890 -0.6885490379 -0.0000005455 5.6974084464 -0.6832981137 -0.0000005168 5.8973395042 -0.6780471894 -0.0000004879 6.0972705619 -0.6727962652 -0.0000004599 6.2972016193 -0.6675453411 -0.0000004338 6.4971326769 -0.6622944170 -0.0000004094 6.6970637344 -0.6570434928 -0.0000003870 6.8969947923 -0.6517925685 -0.0000003671 7.0969258502 -0.6465416441 -0.0000003508 7.2968569076 -0.6412907198 -0.0000003375 7.4967879652 -0.6360397956 -0.0000003266 7.6967190227 -0.6307888712 -0.0000003180 7.8966500805 -0.6255379468 -0.0000003116 8.0965811384 -0.6202870223 -0.0000003079 8.2965121958 -0.6150360980 -0.0000003054 8.4964432534 -0.6097851737 -0.0000003024 8.6963743108 -0.6045342494 -0.0000002976 8.8963053688 -0.5992833250 -0.0000002888 9.0962364267 -0.5940324006 -0.0000002736 9.2961674842 -0.5887814764 -0.0000002532 9.4960985418 -0.5835305521 -0.0000002269 9.6960295992 -0.5782796279 -0.0000001940 9.8959606570 -0.5730287035 -0.0000001525 10.0958917147 -0.5677777788 -0.0000001001 10.2958227721 -0.5625268545 -0.0000000407 10.4957538295 -0.5572759303 0.0000000244 10.6956848868 -0.5520250059 0.0000000945 10.8956159442 -0.5467740816 0.0000001696 11.0955470016 -0.5415231576 0.0000002488 11.2954780589 -0.5362722338 0.0000003286 11.4954091162 -0.5310213105 0.0000004081 11.6953401733 -0.5257703873 0.0000004867 11.8952712309 -0.5205194643 0.0000005638 12.0952022885 -0.5152685422 0.0000006382 12.2951333460 -0.5100176197 0.0000007104 12.4950644037 -0.5047666980 0.0000007805 12.6949954611 -0.4995157765 0.0000008493 12.8949265196 -0.4942648543 0.0000009179 13.0948575778 -0.4890139336 0.0000009864 13.2947886359 -0.4837630107 0.0000010549 13.5572463734 -0.4605039849 0.0000000000 13.7572441334 -0.4614508282 0.0000000000 13.9572418924 -0.4623976729 0.0000000000 14.1572396515 -0.4633445182 0.0000000000 14.3572374105 -0.4642913630 0.0000000000 14.5572351695 -0.4652382081 0.0000000000 14.7572329284 -0.4661850531 0.0000000000 14.9572306873 -0.4671318979 0.0000000000 15.1572284467 -0.4680787433 0.0000000000 15.3572262056 -0.4690255877 0.0000000000 15.5572239649 -0.4699724325 0.0000000000 15.7572217213 -0.4709192796 0.0000000000 16.0532465448 -0.3084389769 -0.0000000185 16.2531292078 -0.3015891533 0.0000003548 16.4530118704 -0.2947393332 0.0000004835 16.6528945321 -0.2878895184 -0.0000004540 16.8527771936 -0.2810397065 -0.0000000734 17.0526598552 -0.2741898958 0.0000004376 17.2525425165 -0.2673400837 -0.0000002274 17.4524251791 -0.2604902707 0.0000003783 17.6523078424 -0.2536404591 -0.0000008572 17.8521905062 -0.2467906474 -0.0000004634 18.0520731699 -0.2399408358 0.0000001102 18.2519558339 -0.2330910250 0.0000005163 18.4518384981 -0.2262412138 0.0000006287 18.6517211627 -0.2193914045 0.0000003019 18.8516038271 -0.2125415960 0.0000009545 19.0514864919 -0.2056917878 0.0000005109 19.2513691573 -0.1988419784 0.0000014675 19.4512518218 -0.1919921689 0.0000012081 -0.6049672978 -0.6755568576 -0.0000034918 -0.4050362406 -0.6703059336 -0.0000034070 -0.2051051818 -0.6650550093 -0.0000033209 -0.0051741251 -0.6598040849 -0.0000032301 0.1947569337 -0.6545531603 -0.0000031331 0.3946879912 -0.6493022355 -0.0000030301 0.5946190490 -0.6440513107 -0.0000029206 0.7945501072 -0.6388003859 -0.0000028041 0.9944811642 -0.6335494606 -0.0000026787 1.1944122224 -0.6282985359 -0.0000025458 1.3943432799 -0.6230476109 -0.0000024084 1.5942743373 -0.6177966860 -0.0000022671 1.7942053950 -0.6125457612 -0.0000021228 1.9941364517 -0.6072948362 -0.0000019759 2.1940675094 -0.6020439119 -0.0000018288 2.3939985667 -0.5967929874 -0.0000016830 2.5939296240 -0.5915420630 -0.0000015399 2.7938606815 -0.5862911388 -0.0000014010 2.9937917381 -0.5810402146 -0.0000012703 3.1937227958 -0.5757892906 -0.0000011504 3.3936538530 -0.5705383665 -0.0000010401 3.5935849103 -0.5652874424 -0.0000009405 3.7935159678 -0.5600365184 -0.0000008523 3.9934470246 -0.5547855942 -0.0000007793 4.1933780822 -0.5495346702 -0.0000007212 4.3933091396 -0.5442837461 -0.0000006725 4.5932401969 -0.5390328220 -0.0000006312 4.7931712546 -0.5337818977 -0.0000005955 4.9931023114 -0.5285309736 -0.0000005644 5.1930333692 -0.5232800494 -0.0000005364 5.3929644266 -0.5180291252 -0.000000509
[...]
      <PointData Scalars="radius">
        <DataArray type="Float32" Name="radius" format="ascii">
 0.1000000000 0.1000000000 0.1000000000 0.1000000000 0.1000000000 0.1000000000 0.1000000000 0.1000000000 0.1000000000 0.1000000000 0.1000000000 0.1000000000 0.1000000000 0.1000000000 0.1000000000 0.1000000000 0.1000000000 0.1000000000 0.1000000000 0.1000000000 0.1000000000 0.1000000000 0.1000000000 0.1000000000 0.1000000000 0.1000000000 0.1000000000 0.1000000000 0.1000000000 0.1000000000 0.1000000000 0.1000000000 0.1000000000 0.1000000000 0.1000000000 0.1000000000 0.1000000000 0.1000000000 0.1000000000 0.1000000000 0.1000000000 0.1000000000 0.1000000000 0.1000000000 0.1000000000 0.1000000000 0.1000000000 0.1000000000 0.1000000000 0.1000000000 0.1000000000 0.1000000000 0.1000000000 0.1000000000 0.1000000000 0.1000000000 0.1000000000 0.1000000000 0.1000000000 0.1000000000 0.1000000000 0.1000000000 0.1000000000 0.1000000000 0.1000000000 0.1000000000 0.1000000000 0.1000000000 0.1000000000 0.1000000000 0.1000000000 0.1000000000 0.1000000000 0.1000000000 0.1000000000 0.1000000000 0.1000000000 0.1000000000 0.1000000000 0.1000000000 0.1000000000 0.1000000000 0.1000000000 0.1000000000 0.1000000000 0.1000000000 0.1000000000 0.1000000000 0.1000000000 0.1000000000 0.1000000000 0.1000000000 0.1000000000 0.1000000000 0.1000000000 0.1000000000 0.1000000000 0.1000000000 0.1000000000 0.1000000000 0.1000000000 0.1000000000 0.1000000000 0.1000000000 0.1000000000 0.1000000000 0.1000000000 0.1000000000 0.1000000000 0.1000000000 0.1000000000 0.1000000000 0.1000000000 0.1000000000 0.1000000000 0.1000000000 0.1000000000 0.1000000000 0.1000000000 0.1000000000 0.1000000000 0.1000000000 0.1000000000 0.1000000000 0.1000000000 0.1000000000 0.1000000000 0.1000000000 0.1000000000 0.1000000000 0.1000000000 0.1000000000 0.1000000000 0.1000000000 0.1000000000 0.1000000000 0.1000000000 0.1000000000 0.1000000000 0.1000000000 0.1000000000 0.1000000000 0.1000000000 0.1000000000 0.1000000000 0.1000000000 0.1000000000 0.1000000000 0.1000000000 0.1000000000 0.1000000000 0.1000000000 0.1000000000 0.1000000000 0.1000000000 0.1000000000 0.1000000000 0.1000000000 0.1000000000 0.1000000000 0.1000000000 0.1000000000 0.1000000000 0.1000000000 0.1000000000 0.1000000000 0.1000000000 0.1000000000 0.1000000000 0.1000000000 0.1000000000 0.1000000000 0.1000000000 0.1000000000 0.1000000000 0.1000000000 0.1000000000 0.1000000000 0.1000000000 0.1000000000 0.1000000000 0.1000000000 0.1000000000 0.1000000000 0.1000000000 0.1000000000 0.1000000000 0.1000000000 0.1000000000 0.1000000000 0.1000000000 0.1000000000 0.1000000000 0.1000000000 0.1000000000 0.1000000000 0.1000000000 0.1000000000 0.1000000000 0.1000000000 0.1000000000 0.1000000000 0.1000000000 0.1000000000 0.1000000000 0.1000000000 0.1000000000 0.1000000000 0.1000000000 0.1000000000 0.1000000000 0.1000000000 0.1000000000 0.1000000000 0.1000000000 0.1000000000 0.1000000000 0.1000000000 0.1000000000 0.1000000000 0.1000000000 0.1000000000 0.1000000000 0.1000000000 0.1000000000 0.1000000000 0.1000000000 0.1000000000 0.1000000000 0.1000000000 0.1000000000 0.1000000000 0.1000000000 0.1000000000 0.1000000000 0.1000000000 0.1000000000 0.1000000000 0.1000000000 0.1000000000 0.1000000000 0.1000000000 0.1000000000 0.1000000000 0.1000000000 0.1000000000 0.1000000000 0.1000000000 0.1000000000 0.1000000000 0.1000000000 0.1000000000 0.1000000000 0.1000000000 0.1000000000 0.1000000000 0.1000000000 0.1000000000 0.1000000000 0.1000000000 0.1000000000 0.1000000000 0.1000000000 0.1000000000 0.1000000000 0.1000000000 0.1000000000 0.1000000000 0.1000000000 0.1000000000 0.1000000000 0.1000000000 0.1000000000 0.1000000000 0.1000000000 0.1000000000 0.1000000000 0.1000000000 0.1000000000 0.1000000000 0.1000000000 0.1000000000 0.1000000000 0.1000000000 0.1000000000 0.1000000000 0.1000000000 0.1000000000 0.1000000000 0.1000000000 0.1000000000 0.1000000000 0.1000000000 0.1000000000 0.1000000000 0.1000000000 0.1000000000 0.1000000000 0.1000000000 0.1000000000 0.1000000000 0.1000000000 0.1000000000 0.1000000000 0.1000000000 0.1000000000 0.1000000000 0.1000000000 0.1000000000 0.1000000000 0.1000000000 0.1000000000 0.1000000000 0.1000000000 0.1000000000 0.1000000000 0.1000000000 0.1000000000 0.1000000000 0.1000000000 0.1000000000 0.1000000000 0.1000000000 0.1000000000 0.1000000000 0.1000000000 0.1000000000 0.1000000000 0.1000000000 0.1000000000 0.1000000000 0.1000000000 0.1000000000 0.1000000000 0.1000000000 0.1000000000 0.1000000000 0.1000000000 0.1000000000 0.1000000000 0.1000000000 0.1000000000 0.1000000000 0.1000000000 0.1000000000 0.1000000000 0.1000000000 0.1000000000 0.1000000000 0.1000000000 0.1000000000 0.1000000000 0.1000000000 0.1000000000 0.1000000000 0.1000000000 0.1000000000 0.1000000000 0.1000000000 0.1000000000 0.1000000000 0.1000000000 0.1000000000 0.1000000000 0.1000000000 0.1000000000 0.1000000000 0.1000000000 0.1000000000 0.1000000000 0.1000000000 0.1000000000 0.1000000000 0.1000000000 0.1000000000 0.1000000000 0.1000000000 0.1000000000 0.1000000000 0.1000000000 0.1000000000 0.1000000000 0.1000000000 0.1000000000 0.1000000000 0.1000000000 0.1000000000 0.1000000000 0.1000000000 0.1000000000 0.1000000000 0.1000000000 0.1000000000 0.1000000000 0.1000000000 0.1000000000 0.1000000000 0.1000000000 0.1000000000 0.1000000000 0.1000000000 0.1000000000 0.1000000000 0.1000000000 0.1000000000 0.1000000000 0.1000000000 0.1000000000 0.1000000000 0.1000000000 0.1000000000 0.1000000000 0.1000000000 0.1000000000 0.1000000000 0.1000000000 0.1000000000 0.1000000000 0.1000000000 0.1000000000 0.1000000000 0.1000000000 0.1000000000 0.1000000000 0.1000000000 0.1000000000 0.1000000000 0.1000000000 0.1000000000 0.1000000000 0.1000000000 0.1000000000 0.1000000000 0.1000000000 0.1000000000 0.1000000000 0.1000000000 0.1000000000 0.1000000000 0.1000000000 0.1000000000 0.1000000000 0.1000000000 0.1000000000 0.1000000000 0.1000000000 0.1000000000 0.1000000000 0.1000000000 0.1000000000 0.1000000000 0.1000000000 0.1000000000 0.1000000000 0.1000000000 0.1000000000 0.1000000000 0.1000000000 0.1000000000 0.1000000000 0.1000000000 0.1000000000 0.1000000000 0.1000000000 0.1000000000 0.1000000000 0.1000000000 0.1000000000 0.1000000000 0.1000000000 0.1000000000 0.1000000000 0.1000000000 0.1000000000 0.1000000000 0.1000000000 0.1000000000 0.1000000000 0.1000000000 0.1000000000 0.1000000000 0.1000000000 0.1000000000 0.1000000000 0.1000000000 0.1000000000 0.1000000000 0.1000000000 0.1000000000 0.1000000000 0.1000000000 0.1000000000 0.1000000000 0.1000000000 0.1000000000 0.1000000000 0.1000000000 0.1000000000 0.1000000000 0.1000000000 0.1000000000 0.1000000000 0.1000000000 0.1000000000 0.1000000000 0.1000000000 0.1000000000 0.1000000000 0.1000000000 0.1000000000 0.1000000000 0.1000000000 0.1000000000 0.1000000000 0.1000000000 0.1000000000 0.1000000000 0.1000000000 0.1000000000 0.1000000000 0.1000000000 0.1000000000 0.1000000000 0.1000000000 0.1000000000 0.1000000000 0.1000000000 0.1000000000 0.1000000000 0.1000000000 0.1000000000 0.1000000000 0.1000000000 0.1000000000 0.1000000000 0.1000000000 0.1000000000 0.1000000000 0.1000000000 0.1000000000 0.1000000000 0.1000000000 0.1000000000 0.1000000000 0.1000000000 0.1000000000 0.1000000000 0.1000000000 0.1000000000 0.1000000000 0.1000000000 0.1000000000 0.1000000000 0.1000000000 0.1000000000 0.1000000000 0.1000000000 0.1000000000 0.1000000000 0.1000000000 0.1000000000 0.1000000000 0.1000000000 0.1000000000 0.1000000000 0.1000000000 0.1000000000 0.1000000000 0.1000000000 0.1000000000 0.1000000000 0.1000000000 0.1000000000 0.1000000000 0.1000000000 0.1000000000 0.1000000000 0.1000000000 0.1000000000 0.1000000000 0.1000000000 0.1000000000 0.1000000000 0.1000000000 0.1000000000 0.1000000000 0.1000000000 0.1000000000 0.1000000000 0.1000000000 0.1000000000 0.1000000000 0.1000000000 0.1000000000 0.1000000000 0.1000000000 0.1000000000 0.1000000000 0.1000000000 0.1000000000 0.1000000000 0.1000000000 0.1000000000 0.1000000000 0.1000000000 0.1000000000 0.1000000000 0.1000000000 0.1000000000 0.1000000000 0.1000000000 0.1000000000 0.1000000000 0.1000000000 0.1000000000 0.1000000000 0.1000000000 0.1000000000 0.1000000000 0.1000000000 0.1000000000 0.1000000000 0.1000000000 0.1000000000 0.1000000000 0.1000000000 0.1000000000 0.1000000000 0.1000000000 0.1000000000 0.1000000000 0.1000000000 0.1000000000 0.1000000000 0.1000000000 0.1000000000 0.1000000000 0.1000000000 0.1000000000 0.1000000000 0.1000000000 0.1000000000 0.1000000000 0.1000000000 0.1000000000 0.1000000000 0.1000000000 0.1000000000 0.1000000000 0.1000000000 0.1000000000 0.1000000000 0.1000000000 0.1000000000 0.1000000000 0.1000000000 0.1000000000 0.1000000000 0.1000000000 0.1000000000 0.1000000000 0.1000000000 0.1000000000 0.1000000000 0.1000000000 0.1000000000 0.1000000000 0.1000000000 0.1000000000 0.1000000000 0.1000000000 0.1000000000 0.1000000000 0.1000000000 0.1000000000 0.1000000000 0.1000000000 0.1000000000 0.1000000000 0.1000000000 0.1000000000 0.1000000000 0.1000000000 0.1000000000 0.1000000000 0.1000000000 0.1000000000 0.1000000000 0.1000000000 0.1000000000 0.1000000000 0.1000000000 0.1000000000 0.1000000000 0.1000000000 0.1000000000 0.1000000000 0.1000000000 0.1000000000 0.1000000000 0.1000000000 0.1000000000 0.1000000000 0.1000000000 0.1000000000 0.1000000000 0.1000000000 0.1000000000 0.1000000000 0.1000000000 0.1000000000 0.1000000000 0.1000000000 0.1000000000 0.1000000000 0.1000000000 0.1000000000 0.1000000000 0.1000000000 0.1000000000 0.1000000000 0.1000000000 0.1000000000 0.1000000000 0.1000000000 0.1000000000 0.1000000000 0.1000000000 0.1000000000 0.1000000000 0.1000000000 0.1000000000 0.1000000000 0.1000000000 0.1000000000 0.1000000000 0.1000000000 0.1000000000 0.1000000000 0.1000000000 0.1000000000 0.1000000000 0.1000000000 0.1000000000 0.1000000000 0.1000000000 0.1000000000 0.1000000000 0.1000000000 0.1000000000 0.1000000000 0.1000000000 0.1000000000 0.1000000000 0.1000000000 0.1000000000 0.1000000000 0.1000000000 0.1000000000 0.1000000000 0.1000000000 0.1000000000 0.1000000000 0.1000000000 0.1000000000 0.1000000000 0.1000000000 0.1000000000 0.1000000000 0.1000000000 0.1000000000 0.1000000000 0.1000000000 0.1000000000 0.1000000000 0.1000000000 0.1000000000 0.1000000000 0.1000000000 0.1000000000 0.1000000000 0.1000000000 0.1000000000 0.1000000000 0.1000000000 0.1000000000 0.1000000000 0.1000000000 0.1000000000 0.1000000000 0.1000000000 0.1000000000 0.1000000000 0.1000000000 0.1000000000 0.1000000000 0.1000000000 0.1000000000 0.1000000000 0.1000000000 0.1000000000 0.1000000000 0.1000000000 0.1000000000 0.1000000000 0.1000000000 0.1000000000 0.1000000000 0.1000000000 0.1000000000 0.1000000000 0.1000000000 0.1000000000 0.1000000000 0.1000000000 0.1000000000 0.1000000000 0.1000000000 0.1000000000 0.1000000000 0.1000000000 0.1000000000 0.1000000000 0.1000000000 0.1000000000 0.1000000000 0.1000000000 0.1000000000 0.1000000000 0.1000000000 0.1000000000 0.1000000000 0.1000000000 0.1000000000 0.1000000000 0.1000000000 0.1000000000 0.1000000000 0.1000000000 0.1000000000 0.1000000000 0.1000000000 0.1000000000 0.1000000000 0.1000000000 0.1000000000 0.1000000000 0.1000000000 0.1000000000 0.1000000000 0.1000000000 0.1000000000 0.1000000000 0.1000000000 0.1000000000 0.1000000000 0.1000000000 0.1000000000 0.1000000000 0.1000000000 0.1000000000 0.1000000000 0.1000000000 0.1000000000 0.1000000000 0.1000000000 0.1000000000 0.1000000000 0.1000000000 0.1000000000 0.1000000000 0.1000000000 0.1000000000 0.1000000000 0.1000000000 0.1000000000 0.1000000000 0.1000000000 0.1000000000 0.1000000000 0.1000000000 0.1000000000 0.1000000000 0.1000000000 0.1000000000 0.1000000000 0.1000000000 0.1000000000 0.1000000000 0.1000000000 0.1000000000 0.1000000000 0.1000000000 0.1000000000 0.1000000000 0.1000000000 0.1000000000 0.1000000000 0.1000000000 0.1000000000 0.1000000000 0.1000000000 0.1000000000 0.1000000000 0.1000000000 0.1000000000 0.1000000000 0.1000000000 0.1000000000 0.1000000000 0.1000000000 0.1000000000 0.1000000000 0.1000000000 0.1000000000 0.1000000000 0.1000000000 0.1000000000 0.1000000000 0.1000000000 0.1000000000 0.1000000000 0.1000000000 0.1000000000 0.1000000000 0.1000000000 0.1000000000 0.1000000000 0.1000000000 0.1000000000 0.1000000000 0.1000000000 0.1000000000 0.1000000000 0.1000000000 0.1000000000 0.1000000000 0.1000000000 0.1000000000 0.1000000000 0.1000000000 0.1000000000 0.1000000000 0.1000000000 0.1000000000 0.1000000000 0.1000000000 0.1000000000 0.1000000000 0.1000000000 0.1000000000 0.1000000000 0.1000000000 0.1000000000 0.1000000000 0.1000000000 0.1000000000 0.1000000000 0.1000000000 0.1000000000 0.1000000000 0.1000000000 0.1000000000 0.1000000000 0.1000000000 0.1000000000 0.1000000000 0.1000000000 0.1000000000 0.1000000000 0.1000000000 0.1000000000 0.1000000000 0.1000000000 0.1000000000 0.1000000000 0.1000000000 0.1000000000 0.1000000000 0.1000000000 0.1000000000 0.1000000000 0.1000000000 0.1000000000 0.1000000000 0.1000000000 0.1000000000 0.1000000000 0.1000000000 0.1000000000 0.1000000000 0.1000000000 0.1000000000 0.1000000000 0.1000000000 0.1000000000 0.1000000000 0.1000000000 0.1000000000 0.1000000000 0.1000000000 0.1000000000 0.1000000000 0.1000000000 0.1000000000 0.1000000000 0.1000000000 0.1000000000 0.1000000000 0.1000000000 0.1000000000 0.1000000000 0.1000000000 0.1000000000 0.1000000000 0.1000000000 0.1000000000 0.1000000000 0.1000000000 0.1000000000 0.1000000000 0.1000000000 0.1000000000 0.1000000000 0.1000000000 0.1000000000 0.1000000000 0.1000000000 0.1000000000 0.1000000000 0.1000000000 0.1000000000 0.1000000000 0.1000000000 0.1000000000 0.1000000000 0.1000000000 0.1000000000 0.1000000000 0.1000000000 0.1000000000 0.1000000000 0.1000000000 0.1000000000 0.1000000000 0.1000000000 0.1000000000 0.1000000000 0.1000000000 0.1000000000 0.1000000000 0.1000000000 0.1000000000 0.1000000000 0.1000000000 0.1000000000 0.1000000000 0.1000000000 0.1000000000 0.1000000000 0.1000000000 0.1000000000 0.1000000000 0.1000000000 0.1000000000 0.1000000000 0.1000000000 0.1000000000 0.1000000000 0.1000000000 0.1000000000 0.1000000000 0.1000000000 0.1000000000 0.1000000000 0.1000000000 0.1000000000 0.1000000000 0.1000000000 0.1000000000 0.1000000000 0.1000000000 0.1000000000 0.1000000000 0.1000000000 0.1000000000 0.1000000000 0.1000000000 0.1000000000 0.1000000000 0.1000000000 0.1000000000 0.1000000000 0.1000000000 0.1000000000 0.1000000000 0.1000000000 0.1000000000 0.1000000000 0.1000000000 0.1000000000 0.1000000000 0.1000000000 0.1000000000 0.1000000000 0.1000000000 0.1000000000 0.1000000000 0.1000000000 0.1000000000 0.1000000000 0.1000000000 0.1000000000 0.1000000000 0.1000000000 0.1000000000 0.1000000000 0.1000000000 0.1000000000 0.1000000000 0.1000000000 0.1000000000 0.1000000000 0.1000000000 0.1000000000 0.1000000000 0.1000000000 0.1000000000 0.1000000000 0.1000000000 0.1000000000 0.1000000000 0.1000000000 0.1000000000 0.1000000000 0.1000000000 0.1000000000 0.1000000000 0.1000000000 0.1000000000 0.1000000000 0.1000000000 0.1000000000 0.1000000000 0.1000000000 0.1000000000 0.1000000000 0.1000000000 0.1000000000 0.1000000000 0.1000000000 0.1000000000 0.1000000000 0.1000000000 0.1000000000 0.1000000000 0.1000000000 0.1000000000 0.1000000000 0.1000000000 0.1000000000 0.1000000000 0.1000000000 0.1000000000 0.1000000000 0.1000000000 0.1000000000 0.1000000000 0.1000000000 0.1000000000 0.1000000000 0.1000000000 0.1000000000 0.1000000000 0.1000000000 0.1000000000 0.1000000000 0.1000000000 0.1000000000 0.1000000000 0.1000000000 0.1000000000 0.1000000000 0.1000000000 0.1000000000 0.1000000000 0.1000000000 0.1000000000 0.1000000000 0.1000000000 0.1000000000 0.1000000000 0.1000000000 0.1000000000 0.1000000000 0.1000000000 0.1000000000 0.1000000000 0.1000000000 0.1000000000 0.1000000000 0.1000000000 0.1000000000 0.1000000000 0.1000000000 0.1000000000 0.1000000000 0.1000000000 0.1000000000 0.1000000000 0.1000000000 0.1000000000 0.1000000000 0.1000000000 0.1000000000 0.1000000000 0.1000000000 0.1000000000 0.1000000000 0.1000000000 0.1000000000 0.1000000000 0.1000000000 0.1000000000 0.1000000000 0.1000000000 0.1000000000 0.1000000000 0.1000000000 0.1000000000 0.1000000000 0.1000000000 0.1000000000 0.1000000000 0.1000000000 0.1000000000 0.1000000000 0.1000000000 0.1000000000 0.1000000000 0.1000000000 0.1000000000 0.1000000000 0.1000000000 0.1000000000 0.1000000000 0.1000000000 0.1000000000 0.1000000000 0.1000000000 0.1000000000 0.1000000000 0.1000000000 0.1000000000 0.1000000000 0.1000000000 0.1000000000 0.1000000000 0.1000000000 0.1000000000 0.1000000000 0.1000000000 0.1000000000 0.1000000000 0.1000000000 0.1000000000 0.1000000000 0.1000000000 0.1000000000 0.1000000000 0.1000000000 0.1000000000 0.1000000000 0.1000000000 0.1000000000 0.1000000000 0.1000000000 0.1000000000 0.1000000000 0.1000000000 0.1000000000 0.1000000000 0.1000000000 0.1000000000 0.1000000000 0.1000000000 0.1000000000 0.1000000000 0.1000000000 0.1000000000 0.1000000000 0.1000000000 0.1000000000 0.1000000000 0.1000000000 0.1000000000 0.1000000000 0.1000000000 0.1000000000 0.1000000000 0.1000000000 0.1000000000 0.1000000000 0.1000000000 0.1000000000 0.1000000000 0.1000000000 0.1000000000 0.1000000000 0.1000000000 0.1000000000 0.1000000000 0.1000000000 0.1000000000 0.1000000000 0.1000000000 0.1000000000 0.1000000000 0.1000000000 0.1000000000 0.1000000000 0.1000000000 0.1000000000 0.1000000000 0.1000000000 0.1000000000 0.1000000000 0.1000000000 0.1000000000 0.1000000000 0.1000000000 0.1000000000 0.1000000000 0.1000000000 0.1000000000 0.1000000000 0.1000000000 0.1000000000 0.1000000000 0.1000000000 0.1000000000 0.1000000000 0.1000000000 0.1000000000 0.1000000000 0.1000000000 0.1000000000 0.1000000000 0.1000000000 0.1000000000 0.1000000000 0.1000000000 0.1000000000 0.1000000000 0.1000000000 0.1000000000 0.1000000000 0.1000000000 0.1000000000 0.1000000000 0.1000000000 0.1000000000 0.1000000000 0.1000000000 0.1000000000 0.1000000000 0.1000000000 0.1000000000 0.1000000000 0.1000000000 0.1000000000 0.1000000000 0.1000000000 0.1000000000 0.1000000000 0.1000000000 0.1000000000 0.1000000000 0.1000000000 0.1000000000 0.1000000000 0.1000000000 0.1000000000 0.1000000000 0.1000000000 0.1000000000 0.1000000000 0.1000000000 0.1000000000 0.1000000000 0.1000000000 0.1000000000 0.1000000000 0.1000000000 0.1000000000 0.1000000000 0.1000000000 0.1000000000 0.1000000000 0.1000000000 0.1000000000 0.1000000000 0.1000000000 0.1000000000 0.1000000000 0.1000000000 0.1000000000 0.1000000000 0.1000000000 0.1000000000 0.1000000000 0.1000000000 0.1000000000 0.1000000000 0.1000000000 0.1000000000 0.1000000000 0.1000000000 0.1000000000 0.1000000000 0.1000000000 0.1000000000 0.1000000000 0.1000000000 0.1000000000 0.1000000000 0.1000000000 0.1000000000 0.1000000000 0.1000000000 0.1000000000 0.1000000000 0.1000000000 0.1000000000 0.1000000000 0.1000000000 0.1000000000 0.1000000000 0.1000000000 0.1000000000 0.1000000000 0.1000000000 0.1000000000 0.1000000000 0.1000000000 0.1000000000 0.1000000000 0.1000000000 0.1000000000 0.1000000000 0.1000000000 0.1000000000 0.1000000000 0.1000000000 0.1000000000 0.1000000000 0.1000000000 0.1000000000 0.1000000000 0.1000000000 0.1000000000 0.1000000000 0.1000000000 0.1000000000 0.1000000000 0.1000000000 0.1000000000 0.1000000000 0.1000000000 0.1000000000 0.1000000000 0.1000000000 0.1000000000 0.1000000000 0.1000000000 0.1000000000 0.1000000000 0.1000000000 0.1000000000 0.1000000000 0.1000000000 0.1000000000 0.1000000000 0.1000000000 0.1000000000 0.1000000000 0.1000000000 0.1000000000 0.1000000000 0.1000000000 0.1000000000 0.1000000000 0.1000000000 0.1000000000 0.1000000000 0.1000000000 0.1000000000 0.1000000000 0.1000000000 0.1000000000 0.1000000000 0.1000000000 0.1000000000 0.1000000000 0.1000000000 0.1000000000 0.1000000000 0.1000000000 0.1000000000 0.1000000000 0.1000000000 0.1000000000 0.1000000000 0.1000000000 0.1000000000 0.1000000000 0.1000000000 0.1000000000 0.1000000000 0.1000000000 0.1000000000 0.1000000000 0.1000000000 0.1000000000 0.1000000000 0.1000000000 0.1000000000 0.1000000000 0.1000000000 0.1000000000 0.10000000