<?xml version="1.0"?>
<VTKFile type="UnstructuredGrid" version="0.1" byte_order="LittleEndian">
  <UnstructuredGrid>
    <FieldData>
      <DataArray type="Float32" Name="TIME"  NumberOfTuples="1" format="ascii"> 1.6500000000 </DataArray>
      <DataArray type="Int32"   Name="STEP"  NumberOfTuples="1" format="ascii"> 412500 </DataArray>
    </FieldData>
    <Piece NumberOfPoints="11600" NumberOfCells="11600">
      <Points>
        <DataArray type="Float32" NumberOfComponents="3" format="ascii">
 -0.2703340443 -0.5709351658 -0.0000014826 -0.0703587030 -0.5677947100 -0.0000015546 0.1296166412 -0.5646542541 -0.0000016265 0.3295919830 -0.5615137979 -0.0000016951 0.5295673274 -0.5583733414 -0.0000017614 0.7295426702 -0.5552328851 -0.0000018241 0.9295180131 -0.5520924287 -0.0000018816 1.1294933570 -0.5489519725 -0.0000019336 1.3294686999 -0.5458115162 -0.0000019747 1.5294440441 -0.5426710598 -0.0000020082 1.7294193871 -0.5395306035 -0.0000020346 1.9293947305 -0.5363901474 -0.0000020526 2.1293700746 -0.5332496913 -0.0000020619 2.3293454196 -0.5301092349 -0.0000020495 2.5293207641 -0.5269687780 -0.0000020321 2.7292961078 -0.5238283214 -0.0000020089 2.9292714514 -0.5206878646 -0.0000019822 3.1292467960 -0.5175474081 -0.0000019543 3.3292221423 -0.5144069508 -0.0000019257 3.5291974869 -0.5112664932 -0.0000018993 3.7291728306 -0.5081260359 -0.0000018738 3.9291481745 -0.5049855785 -0.0000018490 4.1291235191 -0.5018451214 -0.0000018251 4.3290988662 -0.4987046639 -0.0000018042 4.5290742107 -0.4955642061 -0.0000017871 4.7290495549 -0.4924237487 -0.0000017749 4.9290248991 -0.4892832910 -0.0000017688 5.1290002441 -0.4861428336 -0.0000017677 5.3289755927 -0.4830023756 -0.0000017758 5.5289509377 -0.4798619169 -0.0000017743 5.7289262822 -0.4767214586 -0.0000017656 5.9289016266 -0.4735810001 -0.0000017454 6.1288769716 -0.4704405421 -0.0000017125 6.3288523216 -0.4673000831 -0.0000016597 6.5288276667 -0.4641596235 -0.0000015991 6.7288030112 -0.4610191643 -0.0000015384 6.9287783558 -0.4578787051 -0.0000014841 7.1287537010 -0.4547382465 -0.0000014405 7.3287290518 -0.4515977867 -0.0000014222 7.5287043971 -0.4484573260 -0.0000014182 7.7286797419 -0.4453168657 -0.0000014243 7.9286550866 -0.4421764055 -0.0000014390 8.1286304318 -0.4390359457 -0.0000014603 8.3286057829 -0.4358954852 -0.0000014976 8.5285811281 -0.4327550234 -0.0000015304 8.7285564728 -0.4296145623 -0.0000015618 8.9285318176 -0.4264741011 -0.0000015873 9.1285071629 -0.4233336402 -0.0000016030 9.3284825123 -0.4201931787 -0.0000015965 9.5284578572 -0.4170527164 -0.0000015652 9.7284332013 -0.4139122547 -0.0000015185 9.9284085454 -0.4107717930 -0.0000014579 10.1283838899 -0.4076313316 -0.0000013871 10.3283592378 -0.4044908700 -0.0000012988 10.5283345821 -0.4013504075 -0.0000012092 10.7283099261 -0.3982099454 -0.0000011155 10.9282852698 -0.3950694830 -0.0000010179 11.1282606146 -0.3919290208 -0.0000009171 11.3282359615 -0.3887885577 -0.0000008079 11.5282113061 -0.3856480939 -0.0000006978 11.7281866495 -0.3825076303 -0.0000005865 11.9281619929 -0.3793671666 -0.0000004759 12.1281373373 -0.3762267031 -0.0000003662 12.3281126816 -0.3730862389 -0.0000002529 12.5280880260 -0.3699457746 -0.0000001395 12.7280633698 -0.3668053105 -0.0000000172 12.9280387135 -0.3636648449 0.0000001065 13.1280140574 -0.3605243803 0.0000002326 13.3279893993 -0.3573839154 0.0000003649 13.5279647450 -0.3542434502 0.0000004958 13.7279400871 -0.3511029824 0.0000006281 13.9514894225 -0.3423306604 0.0000000000 14.1514886188 -0.3428974430 0.0000000000 14.3514878149 -0.3434642253 0.0000000000 14.5514870138 -0.3440310071 0.0000000000 14.7514862101 -0.3445977899 0.0000000000 14.9514854075 -0.3451645718 0.0000000000 15.1514846049 -0.3457313544 0.0000000000 15.3514838013 -0.3462981366 0.0000000000 15.5514829996 -0.3468649189 0.0000000000 15.7514821962 -0.3474317014 0.0000000000 15.9514813939 -0.3479984837 0.0000000000 16.1514805912 -0.3485652656 0.0000000000 16.4053457152 -0.2582892000 -0.0000000078 16.6053116930 -0.2546003228 -0.0000000080 16.8052776694 -0.2509114462 -0.0000000082 17.0052436481 -0.2472225694 -0.0000000083 17.2052096254 -0.2435336928 -0.0000000084 17.4051756026 -0.2398448162 -0.0000000084 17.6051415811 -0.2361559399 -0.0000000085 17.8051075580 -0.2324670634 -0.0000000085 18.0050735363 -0.2287781867 -0.0000000085 18.2050395137 -0.2250893101 -0.0000000085 18.4050054911 -0.2214004335 -0.0000000086 18.6049714699 -0.2177115569 -0.0000000087 18.8049374465 -0.2140226806 -0.0000000090 19.0049034254 -0.2103338037 -0.0000000094 19.2048694029 -0.2066449271 -0.0000000099 19.4048353803 -0.2029560504 -0.0000000104 19.6048013572 -0.1992671735 -0.0000000109 -0.1730660877 -0.3961812126 -0.0000013877 0.0269092538 -0.3930407571 -0.0000014616 0.2268845971 -0.3899003008 -0.0000015342 0.4268599409 -0.3867598446 -0.0000016036 0.6268352837 -0.3836193882 -0.0000016694 0.8268106265 -0.3804789317 -0.0000017305 1.0267859695 -0.3773384752 -0.0000017861 1.2267613134 -0.3741980189 -0.0000018351 1.4267366575 -0.3710575628 -0.0000018753 1.6267120006 -0.3679171064 -0.0000019089 1.8266873440 -0.3647766502 -0.0000019352 2.0266626875 -0.3616361939 -0.0000019531 2.2266380321 -0.3584957377 -0.0000019594 2.4266133769 -0.3553552812 -0.0000019510 2.6265887206 -0.3522148245 -0.0000019345 2.8265640644 -0.3490743676 -0.0000019125 3.0265394083 -0.3459339108 -0.0000018870 3.2265147534 -0.3427934541 -0.0000018600 3.4264900986 -0.3396529967 -0.0000018329 3.6264654427 -0.3365125392 -0.0000018065 3.8264407869 -0.3333720818 -0.0000017808 4.0264161312 -0.3302316245 -0.0000017559 4.2263914766 -0.3270911675 -0.0000017325 4.4263668222 -0.3239507098 -0.0000017123 4.6263421667 -0.3208102522 -0.0000016962 4.8263175111 -0.3176697946 -0.0000016852 5.0262928558 -0.3145293370 -0.0000016797 5.2262682020 -0.3113888797 -0.0000016788 5.4262435482 -0.3082484210 -0.0000016773 5.6262188930 -0.3051079626 -0.0000016700 5.8261942378 -0.3019675042 -0.0000016533 6.0261695828 -0.2988270459 -0.0000016247 6.2261449295 -0.2956865878 -0.0000015824 6.4261202761 -0.2925461281 -0.0000015266 6.6260956212 -0.2894056688 -0.0000014668 6.8260709664 -0.2862652097 -0.0000014098 7.0260463117 -0.2831247506 -0.0000013610 7.2260216586 -0.2799842918 -0.0000013258 7.4259970056 -0.2768438311 -0.0000013095 7.6259723508 -0.2737033708 -0.0000013050 7.8259476961 -0.2705629106 -0.0000013093 8.0259230415 -0.2674224504 -0.0000013216 8.2258983886 -0.2642819906 -0.0000013422 8.4258737357 -0.2611415290 -0.0000013701 8.6258490810 -0.2580010678 -0.0000013990 8.8258244262 -0.2548606066 -0.0000014252 9.0257997713 -0.2517201455 -0.0000014442 9.2257751180 -0.2485796846 -0.0000014498 9.4257504645 -0.2454392222 -0.0000014320 9.6257258093 -0.2422987604 -0.0000013962 9.8257011539 -0.2391582986 -0.0000013458 10.0256764984 -0.2360178371 -0.0000012834 10.2256518440 -0.2328773759 -0.0000012102 10.4256271896 -0.2297369133 -0.0000011271 10.6256025338 -0.2265964511 -0.0000010387 10.8255778781 -0.2234559890 -0.0000009460 11.0255532222 -0.2203155267 -0.0000008491 11.2255285673 -0.2171750644 -0.0000007477 11.4255039124 -0.2140346006 -0.0000006415 11.6254792564 -0.2108941369 -0.0000005338 11.8254546001 -0.2077536734 -0.0000004263 12.0254299435 -0.2046132096 -0.0000003197 12.2254052880 -0.2014727457 -0.0000002127 12.4253806322 -0.1983322820 -0.0000001032 12.6253559759 -0.1951918175 0.0000000102 12.8253313197 -0.1920513530 0.0000001293 13.0253066624 -0.1889108883 0.0000002516 13.2252820062 -0.1857704227 0.0000003774 13.4252573494 -0.1826299588 0.0000005065 13.6252326922 -0.1794894924 0.0000006369 13.8519806696 -0.1688428871 0.0000000000 14.0519798678 -0.1694096677 0.0000000000 14.2519790650 -0.1699764499 0.0000000000 14.4519782623 -0.1705432326 0.0000000000 14.6519774594 -0.1711100147 0.0000000000 14.8519766567 -0.1716767972 0.0000000000 15.0519758537 -0.1722435796 0.0000000000 15.2519750508 -0.1728103617 0.0000000000 15.4519742484 -0.1733771445 0.0000000000 15.6519734455 -0.1739439263 0.0000000000 15.8519726430 -0.1745107084 0.0000000000 16.0519718375 -0.1750774930 0.0000000000 16.3021680662 -0.0869580235 -0.0000000075 16.5021340423 -0.0832691462 -0.0000000076 16.7021000201 -0.0795802689 -0.0000000078 16.9020659982 -0.0758913923 -0.0000000079 17.1020319757 -0.0722025156 -0.0000000081 17.3019979533 -0.0685136390 -0.0000000082 17.5019639308 -0.0648247627 -0.0000000082 17.7019299088 -0.0611358859 -0.0000000083 17.9018958867 -0.0574470094 -0.0000000083 18.1018618642 -0.0537581329 -0.0000000083 18.3018278417 -0.0500692564 -0.0000000084 18.5017938194 -0.0463803801 -0.0000000085 18.7017597976 -0.0426915031 -0.0000000087 18.9017257757 -0.0390026268 -0.0000000090 19.1016917532 -0.0353137501 -0.0000000094 19.3016577308 -0.0316248735 -0.0000000099 19.5016237082 -0.0279359968 -0.0000000104 19.7015896847 -0.0242471201 -0.0000000109 -0.2757734739 -0.2245677145 -0.0000012225 -0.0757981319 -0.2214272586 -0.0000012984 0.1241772117 -0.2182868026 -0.0000013735 0.3241525534 -0.2151463464 -0.0000014463 0.5241278972 -0.2120058900 -0.0000015150 0.7241032400 -0.2088654336 -0.0000015794 0.9240785831 -0.2057249773 -0.0000016385 1.1240539269 -0.2025845211 -0.0000016922 1.3240292698 -0.1994440645 -0.0000017390 1.5240046138 -0.1963036085 -0.0000017789 1.7239799574 -0.1931631522 -0.0000018130 1.9239553008 -0.1900226960 -0.0000018399 2.1239306448 -0.1868822398 -0.0000018582 2.3239059887 -0.1837417831 -0.0000018631 2.5238813331 -0.1806013268 -0.0000018553 2.7238566770 -0.1774608701 -0.0000018396 2.9238320209 -0.1743204133 -0.0000018182 3.1238073651 -0.1711799565 -0.0000017934 3.3237827102 -0.1680394992 -0.0000017667 3.5237580547 -0.1648990419 -0.0000017398 3.7237333989 -0.1617585845 -0.0000017134 3.9237087432 -0.1586181272 -0.0000016876 4.1236840876 -0.1554776700 -0.0000016628 4.3236594336 -0.1523372124 -0.0000016399 4.5236347782 -0.1491967549 -0.0000016206 4.7236101228 -0.1460562975 -0.0000016052 4.9235854674 -0.1429158399 -0.0000015946 5.1235608123 -0.1397753823 -0.0000015881 5.3235361588 -0.1366349245 -0.0000015837 5.5235115038 -0.1334944659 -0.0000015757 5
[...]
      <PointData Scalars="radius">
        <DataArray type="Float32" Name="radius" format="ascii">
 0.1000000000 0.1000000000 0.1000000000 0.1000000000 0.1000000000 0.1000000000 0.1000000000 0.1000000000 0.1000000000 0.1000000000 0.1000000000 0.1000000000 0.1000000000 0.1000000000 0.1000000000 0.1000000000 0.1000000000 0.1000000000 0.1000000000 0.1000000000 0.1000000000 0.1000000000 0.1000000000 0.1000000000 0.1000000000 0.1000000000 0.1000000000 0.1000000000 0.1000000000 0.1000000000 0.1000000000 0.1000000000 0.1000000000 0.1000000000 0.1000000000 0.1000000000 0.1000000000 0.1000000000 0.1000000000 0.1000000000 0.1000000000 0.1000000000 0.1000000000 0.1000000000 0.1000000000 0.1000000000 0.1000000000 0.1000000000 0.1000000000 0.1000000000 0.1000000000 0.1000000000 0.1000000000 0.1000000000 0.1000000000 0.1000000000 0.1000000000 0.1000000000 0.1000000000 0.1000000000 0.1000000000 0.1000000000 0.1000000000 0.1000000000 0.1000000000 0.1000000000 0.1000000000 0.1000000000 0.1000000000 0.1000000000 0.1000000000 0.1000000000 0.1000000000 0.1000000000 0.1000000000 0.1000000000 0.1000000000 0.1000000000 0.1000000000 0.1000000000 0.1000000000 0.1000000000 0.1000000000 0.1000000000 0.1000000000 0.1000000000 0.1000000000 0.1000000000 0.1000000000 0.1000000000 0.1000000000 0.1000000000 0.1000000000 0.1000000000 0.1000000000 0.1000000000 0.1000000000 0.1000000000 0.1000000000 0.1000000000 0.1000000000 0.1000000000 0.1000000000 0.1000000000 0.1000000000 0.1000000000 0.1000000000 0.1000000000 0.1000000000 0.1000000000 0.1000000000 0.1000000000 0.1000000000 0.1000000000 0.1000000000 0.1000000000 0.1000000000 0.1000000000 0.1000000000 0.1000000000 0.1000000000 0.1000000000 0.1000000000 0.1000000000 0.1000000000 0.1000000000 0.1000000000 0.1000000000 0.1000000000 0.1000000000 0.1000000000 0.1000000000 0.1000000000 0.1000000000 0.1000000000 0.1000000000 0.1000000000 0.1000000000 0.1000000000 0.1000000000 0.1000000000 0.1000000000 0.1000000000 0.1000000000 0.1000000000 0.1000000000 0.1000000000 0.1000000000 0.1000000000 0.1000000000 0.1000000000 0.1000000000 0.1000000000 0.1000000000 0.1000000000 0.1000000000 0.1000000000 0.1000000000 0.1000000000 0.1000000000 0.1000000000 0.1000000000 0.1000000000 0.1000000000 0.1000000000 0.1000000000 0.1000000000 0.1000000000 0.1000000000 0.1000000000 0.1000000000 0.1000000000 0.1000000000 0.1000000000 0.1000000000 0.1000000000 0.1000000000 0.1000000000 0.1000000000 0.1000000000 0.1000000000 0.1000000000 0.1000000000 0.1000000000 0.1000000000 0.1000000000 0.1000000000 0.1000000000 0.1000000000 0.1000000000 0.1000000000 0.1000000000 0.1000000000 0.1000000000 0.1000000000 0.1000000000 0.1000000000 0.1000000000 0.1000000000 0.1000000000 0.1000000000 0.1000000000 0.1000000000 0.1000000000 0.1000000000 0.1000000000 0.1000000000 0.1000000000 0.1000000000 0.1000000000 0.1000000000 0.1000000000 0.1000000000 0.1000000000 0.1000000000 0.1000000000 0.1000000000 0.1000000000 0.1000000000 0.1000000000 0.1000000000 0.1000000000 0.1000000000 0.1000000000 0.1000000000 0.1000000000 0.1000000000 0.1000000000 0.1000000000 0.1000000000 0.1000000000 0.1000000000 0.1000000000 0.1000000000 0.1000000000 0.1000000000 0.1000000000 0.1000000000 0.1000000000 0.1000000000 0.1000000000 0.1000000000 0.1000000000 0.1000000000 0.1000000000 0.1000000000 0.1000000000 0.1000000000 0.1000000000 0.1000000000 0.1000000000 0.1000000000 0.1000000000 0.1000000000 0.1000000000 0.1000000000 0.1000000000 0.1000000000 0.1000000000 0.1000000000 0.1000000000 0.1000000000 0.1000000000 0.1000000000 0.1000000000 0.1000000000 0.1000000000 0.1000000000 0.1000000000 0.1000000000 0.1000000000 0.1000000000 0.1000000000 0.1000000000 0.1000000000 0.1000000000 0.1000000000 0.1000000000 0.1000000000 0.1000000000 0.1000000000 0.1000000000 0.1000000000 0.1000000000 0.1000000000 0.1000000000 0.1000000000 0.1000000000 0.1000000000 0.1000000000 0.1000000000 0.1000000000 0.1000000000 0.1000000000 0.1000000000 0.1000000000 0.1000000000 0.1000000000 0.1000000000 0.1000000000 0.1000000000 0.1000000000 0.1000000000 0.1000000000 0.1000000000 0.1000000000 0.1000000000 0.1000000000 0.1000000000 0.1000000000 0.1000000000 0.1000000000 0.1000000000 0.1000000000 0.1000000000 0.1000000000 0.1000000000 0.1000000000 0.1000000000 0.1000000000 0.1000000000 0.1000000000 0.1000000000 0.1000000000 0.1000000000 0.1000000000 0.1000000000 0.1000000000 0.1000000000 0.1000000000 0.1000000000 0.1000000000 0.1000000000 0.1000000000 0.1000000000 0.1000000000 0.1000000000 0.1000000000 0.1000000000 0.1000000000 0.1000000000 0.1000000000 0.1000000000 0.1000000000 0.1000000000 0.1000000000 0.1000000000 0.1000000000 0.1000000000 0.1000000000 0.1000000000 0.1000000000 0.1000000000 0.1000000000 0.1000000000 0.1000000000 0.1000000000 0.1000000000 0.1000000000 0.1000000000 0.1000000000 0.1000000000 0.1000000000 0.1000000000 0.1000000000 0.1000000000 0.1000000000 0.1000000000 0.1000000000 0.1000000000 0.1000000000 0.1000000000 0.1000000000 0.1000000000 0.1000000000 0.1000000000 0.1000000000 0.1000000000 0.1000000000 0.1000000000 0.1000000000 0.1000000000 0.1000000000 0.1000000000 0.1000000000 0.1000000000 0.1000000000 0.1000000000 0.1000000000 0.1000000000 0.1000000000 0.1000000000 0.1000000000 0.1000000000 0.1000000000 0.1000000000 0.1000000000 0.1000000000 0.1000000000 0.1000000000 0.1000000000 0.1000000000 0.1000000000 0.1000000000 0.1000000000 0.1000000000 0.1000000000 0.1000000000 0.1000000000 0.1000000000 0.1000000000 0.1000000000 0.1000000000 0.1000000000 0.1000000000 0.1000000000 0.1000000000 0.1000000000 0.1000000000 0.1000000000 0.1000000000 0.1000000000 0.1000000000 0.1000000000 0.1000000000 0.1000000000 0.1000000000 0.1000000000 0.1000000000 0.1000000000 0.1000000000 0.1000000000 0.1000000000 0.1000000000 0.1000000000 0.1000000000 0.1000000000 0.1000000000 0.1000000000 0.1000000000 0.1000000000 0.1000000000 0.1000000000 0.1000000000 0.1000000000 0.1000000000 0.1000000000 0.1000000000 0.1000000000 0.1000000000 0.1000000000 0.1000000000 0.1000000000 0.1000000000 0.1000000000 0.1000000000 0.1000000000 0.1000000000 0.1000000000 0.1000000000 0.1000000000 0.1000000000 0.1000000000 0.1000000000 0.1000000000 0.1000000000 0.1000000000 0.1000000000 0.1000000000 0.1000000000 0.1000000000 0.1000000000 0.1000000000 0.1000000000 0.1000000000 0.1000000000 0.1000000000 0.1000000000 0.1000000000 0.1000000000 0.1000000000 0.1000000000 0.1000000000 0.1000000000 0.1000000000 0.1000000000 0.1000000000 0.1000000000 0.1000000000 0.1000000000 0.1000000000 0.1000000000 0.1000000000 0.1000000000 0.1000000000 0.1000000000 0.1000000000 0.1000000000 0.1000000000 0.1000000000 0.1000000000 0.1000000000 0.1000000000 0.1000000000 0.1000000000 0.1000000000 0.1000000000 0.1000000000 0.1000000000 0.1000000000 0.1000000000 0.1000000000 0.1000000000 0.1000000000 0.1000000000 0.1000000000 0.1000000000 0.1000000000 0.1000000000 0.1000000000 0.1000000000 0.1000000000 0.1000000000 0.1000000000 0.1000000000 0.1000000000 0.1000000000 0.1000000000 0.1000000000 0.1000000000 0.1000000000 0.1000000000 0.1000000000 0.1000000000 0.1000000000 0.1000000000 0.1000000000 0.1000000000 0.1000000000 0.1000000000 0.1000000000 0.1000000000 0.1000000000 0.1000000000 0.1000000000 0.1000000000 0.1000000000 0.1000000000 0.1000000000 0.1000000000 0.1000000000 0.1000000000 0.1000000000 0.1000000000 0.1000000000 0.1000000000 0.1000000000 0.1000000000 0.1000000000 0.1000000000 0.1000000000 0.1000000000 0.1000000000 0.1000000000 0.1000000000 0.1000000000 0.1000000000 0.1000000000 0.1000000000 0.1000000000 0.1000000000 0.1000000000 0.1000000000 0.1000000000 0.1000000000 0.1000000000 0.1000000000 0.1000000000 0.1000000000 0.1000000000 0.1000000000 0.1000000000 0.1000000000 0.1000000000 0.1000000000 0.1000000000 0.1000000000 0.1000000000 0.1000000000 0.1000000000 0.1000000000 0.1000000000 0.1000000000 0.1000000000 0.1000000000 0.1000000000 0.1000000000 0.1000000000 0.1000000000 0.1000000000 0.1000000000 0.1000000000 0.1000000000 0.1000000000 0.1000000000 0.1000000000 0.1000000000 0.1000000000 0.1000000000 0.1000000000 0.1000000000 0.1000000000 0.1000000000 0.1000000000 0.1000000000 0.1000000000 0.1000000000 0.1000000000 0.1000000000 0.1000000000 0.1000000000 0.1000000000 0.1000000000 0.1000000000 0.1000000000 0.1000000000 0.1000000000 0.1000000000 0.1000000000 0.1000000000 0.1000000000 0.1000000000 0.1000000000 0.1000000000 0.1000000000 0.1000000000 0.1000000000 0.1000000000 0.1000000000 0.1000000000 0.1000000000 0.1000000000 0.1000000000 0.1000000000 0.1000000000 0.1000000000 0.1000000000 0.1000000000 0.1000000000 0.1000000000 0.1000000000 0.1000000000 0.1000000000 0.1000000000 0.1000000000 0.1000000000 0.1000000000 0.1000000000 0.1000000000 0.1000000000 0.1000000000 0.1000000000 0.1000000000 0.1000000000 0.1000000000 0.1000000000 0.1000000000 0.1000000000 0.1000000000 0.1000000000 0.1000000000 0.1000000000 0.1000000000 0.1000000000 0.1000000000 0.1000000000 0.1000000000 0.1000000000 0.1000000000 0.1000000000 0.1000000000 0.1000000000 0.1000000000 0.1000000000 0.1000000000 0.1000000000 0.1000000000 0.1000000000 0.1000000000 0.1000000000 0.1000000000 0.1000000000 0.1000000000 0.1000000000 0.1000000000 0.1000000000 0.1000000000 0.1000000000 0.1000000000 0.1000000000 0.1000000000 0.1000000000 0.1000000000 0.1000000000 0.1000000000 0.1000000000 0.1000000000 0.1000000000 0.1000000000 0.1000000000 0.1000000000 0.1000000000 0.1000000000 0.1000000000 0.1000000000 0.1000000000 0.1000000000 0.1000000000 0.1000000000 0.1000000000 0.1000000000 0.1000000000 0.1000000000 0.1000000000 0.1000000000 0.1000000000 0.1000000000 0.1000000000 0.1000000000 0.1000000000 0.1000000000 0.1000000000 0.1000000000 0.1000000000 0.1000000000 0.1000000000 0.1000000000 0.1000000000 0.1000000000 0.1000000000 0.1000000000 0.1000000000 0.1000000000 0.1000000000 0.1000000000 0.1000000000 0.1000000000 0.1000000000 0.1000000000 0.1000000000 0.1000000000 0.1000000000 0.1000000000 0.1000000000 0.1000000000 0.1000000000 0.1000000000 0.1000000000 0.1000000000 0.1000000000 0.1000000000 0.1000000000 0.1000000000 0.1000000000 0.1000000000 0.1000000000 0.1000000000 0.1000000000 0.1000000000 0.1000000000 0.1000000000 0.1000000000 0.1000000000 0.1000000000 0.1000000000 0.1000000000 0.1000000000 0.1000000000 0.1000000000 0.1000000000 0.1000000000 0.1000000000 0.1000000000 0.1000000000 0.1000000000 0.1000000000 0.1000000000 0.1000000000 0.1000000000 0.1000000000 0.1000000000 0.1000000000 0.1000000000 0.1000000000 0.1000000000 0.1000000000 0.1000000000 0.1000000000 0.1000000000 0.1000000000 0.1000000000 0.1000000000 0.1000000000 0.1000000000 0.1000000000 0.1000000000 0.1000000000 0.1000000000 0.1000000000 0.1000000000 0.1000000000 0.1000000000 0.1000000000 0.1000000000 0.1000000000 0.1000000000 0.1000000000 0.1000000000 0.1000000000 0.1000000000 0.1000000000 0.1000000000 0.1000000000 0.1000000000 0.1000000000 0.1000000000 0.1000000000 0.1000000000 0.1000000000 0.1000000000 0.1000000000 0.1000000000 0.1000000000 0.1000000000 0.1000000000 0.1000000000 0.1000000000 0.1000000000 0.1000000000 0.1000000000 0.1000000000 0.1000000000 0.1000000000 0.1000000000 0.1000000000 0.1000000000 0.1000000000 0.1000000000 0.1000000000 0.1000000000 0.1000000000 0.1000000000 0.1000000000 0.1000000000 0.1000000000 0.1000000000 0.1000000000 0.1000000000 0.1000000000 0.1000000000 0.1000000000 0.1000000000 0.1000000000 0.1000000000 0.1000000000 0.1000000000 0.1000000000 0.1000000000 0.1000000000 0.1000000000 0.1000000000 0.1000000000 0.1000000000 0.1000000000 0.1000000000 0.1000000000 0.1000000000 0.1000000000 0.1000000000 0.1000000000 0.1000000000 0.1000000000 0.1000000000 0.1000000000 0.1000000000 0.1000000000 0.1000000000 0.1000000000 0.1000000000 0.1000000000 0.1000000000 0.1000000000 0.1000000000 0.1000000000 0.1000000000 0.1000000000 0.1000000000 0.1000000000 0.1000000000 0.1000000000 0.1000000000 0.1000000000 0.1000000000 0.1000000000 0.1000000000 0.1000000000 0.1000000000 0.1000000000 0.1000000000 0.1000000000 0.1000000000 0.1000000000 0.1000000000 0.1000000000 0.1000000000 0.1000000000 0.1000000000 0.1000000000 0.1000000000 0.1000000000 0.1000000000 0.1000000000 0.1000000000 0.1000000000 0.1000000000 0.1000000000 0.1000000000 0.1000000000 0.1000000000 0.1000000000 0.1000000000 0.1000000000 0.1000000000 0.1000000000 0.1000000000 0.1000000000 0.1000000000 0.1000000000 0.1000000000 0.1000000000 0.1000000000 0.1000000000 0.1000000000 0.1000000000 0.1000000000 0.1000000000 0.1000000000 0.1000000000 0.1000000000 0.1000000000 0.1000000000 0.1000000000 0.1000000000 0.1000000000 0.1000000000 0.1000000000 0.1000000000 0.1000000000 0.1000000000 0.1000000000 0.1000000000 0.1000000000 0.1000000000 0.1000000000 0.1000000000 0.1000000000 0.1000000000 0.1000000000 0.1000000000 0.1000000000 0.1000000000 0.1000000000 0.1000000000 0.1000000000 0.1000000000 0.1000000000 0.1000000000 0.1000000000 0.1000000000 0.1000000000 0.1000000000 0.1000000000 0.1000000000 0.1000000000 0.1000000000 0.1000000000 0.1000000000 0.1000000000 0.1000000000 0.1000000000 0.1000000000 0.1000000000 0.1000000000 0.1000000000 0.1000000000 0.1000000000 0.1000000000 0.1000000000 0.1000000000 0.1000000000 0.1000000000 0.1000000000 0.1000000000 0.1000000000 0.1000000000 0.1000000000 0.1000000000 0.1000000000 0.1000000000 0.1000000000 0.1000000000 0.1000000000 0.1000000000 0.1000000000 0.1000000000 0.1000000000 0.1000000000 0.1000000000 0.1000000000 0.1000000000 0.1000000000 0.1000000000 0.1000000000 0.1000000000 0.1000000000 0.1000000000 0.1000000000 0.1000000000 0.1000000000 0.1000000000 0.1000000000 0.1000000000 0.1000000000 0.1000000000 0.1000000000 0.1000000000 0.1000000000 0.1000000000 0.1000000000 0.1000000000 0.1000000000 0.1000000000 0.1000000000 0.1000000000 0.1000000000 0.1000000000 0.1000000000 0.1000000000 0.1000000000 0.1000000000 0.1000000000 0.1000000000 0.1000000000 0.1000000000 0.1000000000 0.1000000000 0.1000000000 0.1000000000 0.1000000000 0.1000000000 0.1000000000 0.1000000000 0.1000000000 0.1000000000 0.1000000000 0.1000000000 0.1000000000 0.1000000000 0.1000000000 0.1000000000 0.1000000000 0.1000000000 0.1000000000 0.1000000000 0.1000000000 0.1000000000 0.1000000000 0.1000000000 0.1000000000 0.1000000000 0.1000000000 0.1000000000 0.1000000000 0.1000000000 0.1000000000 0.1000000000 0.1000000000 0.1000000000 0.1000000000 0.1000000000 0.1000000000 0.1000000000 0.1000000000 0.1000000000 0.1000000000 0.1000000000 0.1000000000 0.1000000000 0.1000000000 0.1000000000 0.1000000000 0.1000000000 0.1000000000 0.1000000000 0.1000000000 0.1000000000 0.1000000000 0.1000000000 0.1000000000 0.1000000000 0.1000000000 0.1000000000 0.1000000000 0.1000000000 0.1000000000 0.1000000000 0.1000000000 0.1000000000 0.1000000000 0.1000000000 0.1000000000 0.1000000000 0.1000000000 0.1000000000 0.1000000000 0.1000000000 0.1000000000 0.1000000000 0.1000000000 0.1000000000 0.1000000000 0.1000000000 0.1000000000 0.1000000000 0.1000000000 0.1000000000 0.1000000000 0.1000000000 0.1000000000 0.1000000000 0.1000000000 0.1000000000 0.1000000000 0.1000000000 0.1000000000 0.1000000000 0.1000000000 0.1000000000 0.1000000000 0.1000000000 0.1000000000 0.1000000000 0.1000000000 0.1000000000 0.1000000000 0.1000000000 0.1000000000 0.1000000000 0.1000000000 0.1000000000 0.1000000000 0.1000000000 0.1000000000 0.1000000000 0.1000000000 0.1000000000 0.1000000000 0.1000000000 0.1000000000 0.1000000000 0.1000000000 0.1000000000 0.1000000000 0.1000000000 0.1000000000 0.1000000000 0.1000000000 0.1000000000 0.1000000000 0.1000000000 0.1000000000 0.1000000000 0.1000000000 0.1000000000 0.1000000000 0.1000000000 0.1000000000 0.1000000000 0.1000000000 0.1000000000 0.1000000000 0.1000000000 0.1000000000 0.1000000000 0.1000000000 0.1000000000 0.1000000000 0.1000000000 0.1000000000 0.1000000000 0.1000000000 0.1000000000 0.1000000000 0.1000000000 0.1000000000 0.1000000000 0.1000000000 0.1000000000 0.1000000000 0.1000000000 0.1000000000 0.1000000000 0.1000000000 0.1000000000 0.1000000000 0.1000000000 0.1000000000 0.1000000000 0.1000000000 0.1000000000 0.1000000000 0.1000000000 0.1000000000 0.1000000000 0.1000000000 0.1000000000 0.1000000000 0.1000000000 0.1000000000 0.1000000000 0.1000000000 0.1000000000 0.1000000000 0.1000000000 0.1000000000 0.1000000000 0.1000000000 0.1000000000 0.1000000000 0.1000000000 0.1000000000 0.1000000000 0.1000000000 0.1000000000 0.1000000000 0.1000000000 0.1000000000 0.1000000000 0.1000000000 0.1000000000 0.1000000000 0.1000000000 0.1000000000 0.1000000000 0.1000000000 0.1000000000 0.1000000000 0.1000000000 0.1000000000 0.1000000000 0.1000000000 0.1000000000 0.1000000000 0.1000000000 0.1000000000 0.1000000000 0.1000000000 0.1000000000 0.1000000000 0.1000000000 0.1000000000 0.1000000000 0.1000000000 0.1000000000 0.1000000000 0.1000000000 0.1000000000 0.1000000000 0.1000000000 0.1000000000 0.1000000000 0.1000000000 0.1000000000 0.1000000000 0.1000000000 0.1000000000 0.1000000000 0.1000000000 0.1000000000 0.1000000000 0.1000000000 0.1000000000 0.1000000000 0.1000000000 0.1000000000 0.1000000000 0.1000000000 0.1000000000 0.1000000000 0.1000000000 0.1000000000 0.1000000000 0.1000000000 0.1000000000 0.1000000000 0.1000000000 0.1000000000 0.1000000000 0.1000000000 0.1000000000 0.1000000000 0.1000000000 0.1000000000 0.1000000000 0.1000000000 0.1000000000 0.1000000000 0.1000000000 0.1000000000 0.1000000000 0.1000000000 0.1000000000 0.1000000000 0.1000000000 0.1000000000 0.1000000000 0.1000000000 0.1000000000 0.1000000000 0.1000000000 0.1000000000 0.1000000000 0.1000000000 0.1000000000 0.1000000000 0.1000000000 0.1000000000 0.1000000000 0.1000000000 0.1000000000 0.1000000000 0.1000000000 0.1000000000 0.1000000000 0.1000000000 0.1000000000 0.1000000000 0.1000000000 0.1000000000 0.1000000000 0.1000000000 0.1000000000 0.1000000000 0.1000000000 0.1000000000 0.1000000000 0.1000000000 0.1000000000 0.1000000000 0.1000000000 0.1000000000 0.1000000000 0.1000000000 0.1000000000 0.1000000000 0.1000000000 0.1000000000 0.1000000000 0.1000000000 0.1000000000 0.1000000000 0.1000000000 0.1000000000 0.1000000000 0.1000000000 0.1000000000 0.1000000000 0.1000000000 0.1000000000 0.1000000000 0.1000000000 0.1000000000 0.1000000000 0.1000000000 0.1000000000 0.1000000000 0.1000000000 0.1000000000 0.1000000000 0.1000000000 0.1000000000 0.1000000000 0.1000000000 0.1000000000 0.1000000000 0.1000000000 0.1000000000 0.1000000000 0.1000000000 0.1000000000 0.1000000000 0.1000000000 0.1000000000 0.1000000000 0.1000000000 0.1000000000 0.1000000000 0.1000000000 0.1000000000 0.1000000000 0.1000000000 0.1000000000 0.1000000000 0.1000000000 0.1000000000 0.1000000000 0.1000000000 0.1000000000 0.1000000000 0.1000000000 0.1000000000 0.1000000000 0.1000000000 0.1000000000 0.1000000000 0.1000000000 0.1000000000 0.1000000000 0.1000000000 0.1000000000 0.1000000000 0.1000000000 0.1000000000 0.1000000000 0.1000000000 0.1000000000 0.1000000000 0.1000000000 0.1000000000 0.1000000000 0.1000000000 0.1000000000 0.1000000000 0.1000000000 0.1000000000 0.1000000000 0.1000000000 0.1000000000 0.1000000000 0.1000000000 0.1000000000 0.1000000000 0.1000000000 0.1000000000 0.1000000000 0.1000000000 0.1000000000 0.1000000000 0.1000000000 0.1000000000 0.1000000000 0.1000000000 0.1000000000 0.1000000000 0.1000000000 0.1000000000 0.1000000000 0.1000000000 0.1000000000 0.1000000000 0.1000000000 0.1000000000 0.1000000000 0.1000000000 0.1000000000 0.1000000000 0.1000000000 0.1000000000 0.1000000000 0.1000000000 0.1000000000 0.1000000000 0.1000000000 0.1000000000 0.1000000000 0.1000000000 0.1000000000 0.1000000000 0.1000000000 0.1000000000 0.1000000000 0.1000000000 0.1000000000 0.1000000000 0.1000000000 0.1000000000 0.1000000000 0.1000000000 0.1000000000 0.1000000000 0.1000000000 0.1000000000 0.1000000000 0.1000000000 0.1000000000 0.1000000000 0.1000000000 0.1000000000 0.1000000000 0.1000000000 0.1000000000 0.1000000000 0.1000000000 0.1000000000 0.1000000000 0.1000000000 0.1000000000 0.1000000000 0.1000000000 0.1000000000 0.1000000000 0.1000000000 0.1000000000 0.1000000000 0.1000000000 0.1000000000 0.1000000000 0.1000000000 0.1000000000 0.1000000000 0.10000000