<?xml version="1.0"?>
<VTKFile type="UnstructuredGrid" version="0.1" byte_order="LittleEndian">
  <UnstructuredGrid>
    <FieldData>
      <DataArray type="Float32" Name="TIME"  NumberOfTuples="1" format="ascii"> 1.8500000000 </DataArray>
      <DataArray type="Int32"   Name="STEP"  NumberOfTuples="1" format="ascii"> 462500 </DataArray>
    </FieldData>
    <Piece NumberOfPoints="11600" NumberOfCells="11600">
      <Points>
        <DataArray type="Float32" NumberOfComponents="3" format="ascii">
 -0.3076396254 -0.6322291771 0.0000012467 -0.1076691443 -0.6287931619 0.0000011790 0.0923013395 -0.6253571468 0.0000011163 0.2922718208 -0.6219211316 0.0000010805 0.4922423045 -0.6184851160 0.0000010473 0.6922127867 -0.6150491008 0.0000010249 0.8921832688 -0.6116130854 0.0000010130 1.0921537518 -0.6081770704 0.0000010094 1.2921242332 -0.6047410551 0.0000010409 1.4920947162 -0.6013050397 0.0000010531 1.6920651982 -0.5978690244 0.0000010665 1.8920356803 -0.5944330094 0.0000010778 2.0920061631 -0.5909969945 0.0000010844 2.2919766445 -0.5875609795 0.0000010913 2.4919471274 -0.5841249641 0.0000010756 2.6919176095 -0.5806889492 0.0000010524 2.8918880914 -0.5772529342 0.0000010238 3.0918585742 -0.5738169194 0.0000009943 3.2918290555 -0.5703809043 0.0000009682 3.4917995382 -0.5669448891 0.0000009608 3.6917700201 -0.5635088742 0.0000009648 3.8917405020 -0.5600728593 0.0000009805 4.0917109846 -0.5566368446 0.0000010063 4.2916814660 -0.5532008297 0.0000010441 4.4916519483 -0.5497648146 0.0000010944 4.6916224303 -0.5463287999 0.0000011505 4.8915929122 -0.5428927851 0.0000012116 5.0915633948 -0.5394567704 0.0000012767 5.2915338761 -0.5360207556 0.0000013472 5.4915043586 -0.5325847406 0.0000014226 5.6914748405 -0.5291487259 0.0000014998 5.8914453223 -0.5257127112 0.0000015767 6.0914158047 -0.5222766966 0.0000016507 6.2913862860 -0.5188406819 0.0000017181 6.4913567683 -0.5154046671 0.0000017695 6.6913272501 -0.5119686526 0.0000018102 6.8912977319 -0.5085326380 0.0000018381 7.0912682142 -0.5050966237 0.0000018526 7.2912386953 -0.5016606092 0.0000018437 7.4912091776 -0.4982245946 0.0000018167 7.6911796593 -0.4947885803 0.0000017786 7.8911501410 -0.4913525661 0.0000017305 8.0911206232 -0.4879165520 0.0000016748 8.2910911042 -0.4844805379 0.0000016067 8.4910615864 -0.4810445236 0.0000015339 8.6910320680 -0.4776085097 0.0000014564 8.8910025497 -0.4741724957 0.0000013738 9.0909730319 -0.4707364821 0.0000012862 9.2909435128 -0.4673004684 0.0000011904 9.4909139950 -0.4638644545 0.0000010857 9.6908844767 -0.4604284410 0.0000009753 9.8908549584 -0.4569924276 0.0000008587 10.0908254406 -0.4535564142 0.0000007360 10.2907959218 -0.4501204009 0.0000006013 10.4907664039 -0.4466843874 0.0000004557 10.6907368858 -0.4432483742 0.0000003017 10.8907073675 -0.4398123609 0.0000001390 11.0906778500 -0.4363763479 -0.0000000313 11.2906483311 -0.4329403347 -0.0000002121 11.4906188136 -0.4295043215 -0.0000004008 11.6905892953 -0.4260683085 -0.0000005925 11.8905597771 -0.4226322956 -0.0000007860 12.0905302598 -0.4191962830 -0.0000009795 12.2905007409 -0.4157602700 -0.0000011724 12.4904712239 -0.4123242571 -0.0000013632 12.6904417052 -0.4088882449 -0.0000015533 12.8904121879 -0.4054522316 -0.0000017429 13.0903826709 -0.4020162197 -0.0000019329 13.2903531524 -0.3985802075 -0.0000021253 13.4903236376 -0.3951441953 -0.0000023170 13.6902941194 -0.3917081812 -0.0000025096 13.9177997195 -0.3814976859 0.0000000000 14.1177986860 -0.3821404509 0.0000000000 14.3177976524 -0.3827832156 0.0000000000 14.5177966214 -0.3834259798 0.0000000000 14.7177955880 -0.3840687450 0.0000000000 14.9177945557 -0.3847115093 0.0000000000 15.1177935233 -0.3853542743 0.0000000000 15.3177924900 -0.3859970390 0.0000000000 15.5177914585 -0.3866398037 0.0000000000 15.7177904253 -0.3872825685 0.0000000000 15.9177893932 -0.3879253333 0.0000000000 16.1177883608 -0.3885680976 0.0000000000 16.3780680201 -0.2877203184 -0.0000000374 16.5780256726 -0.2836048194 -0.0000000368 16.7779833236 -0.2794893209 -0.0000000361 16.9779409768 -0.2753738220 -0.0000000354 17.1778986287 -0.2712583235 -0.0000000347 17.3778562805 -0.2671428249 -0.0000000339 17.5778139336 -0.2630273265 -0.0000000332 17.7777715851 -0.2589118280 -0.0000000323 17.9777292382 -0.2547963293 -0.0000000315 18.1776868903 -0.2506808307 -0.0000000306 18.3776445424 -0.2465653321 -0.0000000298 18.5776021961 -0.2424498335 -0.0000000289 18.7775598475 -0.2383343350 -0.0000000281 18.9775175013 -0.2342188359 -0.0000000272 19.1774751535 -0.2301033370 -0.0000000263 19.3774328056 -0.2259878380 -0.0000000255 19.5773904572 -0.2218723388 -0.0000000247 -0.2106300608 -0.4573316530 0.0000013009 -0.0106595795 -0.4538956382 0.0000012278 0.1893109035 -0.4504596227 0.0000011631 0.3892813867 -0.4470236075 0.0000011111 0.5892518689 -0.4435875921 0.0000010675 0.7892223511 -0.4401515766 0.0000010329 0.9891928332 -0.4367155612 0.0000010076 1.1891633160 -0.4332795458 0.0000009939 1.3891337987 -0.4298435307 0.0000009889 1.5891042808 -0.4264075155 0.0000009848 1.7890747629 -0.4229715003 0.0000009812 1.9890452450 -0.4195354850 0.0000009769 2.1890157275 -0.4160994699 0.0000009702 2.3889862101 -0.4126634550 0.0000009557 2.5889566921 -0.4092274399 0.0000009335 2.7889271742 -0.4057914247 0.0000009066 2.9888976562 -0.4023554096 0.0000008783 3.1888681385 -0.3989193946 0.0000008537 3.3888386208 -0.3954833797 0.0000008416 3.5888091028 -0.3920473647 0.0000008424 3.7887795849 -0.3886113497 0.0000008551 3.9887500669 -0.3851753347 0.0000008787 4.1887205490 -0.3817393199 0.0000009131 4.3886910313 -0.3783033052 0.0000009603 4.5886615132 -0.3748672904 0.0000010155 4.7886319952 -0.3714312755 0.0000010762 4.9886024771 -0.3679952607 0.0000011415 5.1885729593 -0.3645592459 0.0000012109 5.3885434416 -0.3611232310 0.0000012854 5.5885139234 -0.3576872164 0.0000013623 5.7884844054 -0.3542512016 0.0000014394 5.9884548873 -0.3508151868 0.0000015146 6.1884253694 -0.3473791721 0.0000015845 6.3883958515 -0.3439431574 0.0000016428 6.5883663333 -0.3405071428 0.0000016898 6.7883368152 -0.3370711283 0.0000017252 6.9883072970 -0.3336351137 0.0000017476 7.1882777790 -0.3301990992 0.0000017540 7.3882482610 -0.3267630847 0.0000017387 7.5882187428 -0.3233270704 0.0000017092 7.7881892246 -0.3198910561 0.0000016687 7.9881597063 -0.3164550418 0.0000016189 8.1881301882 -0.3130190276 0.0000015603 8.3881006701 -0.3095830134 0.0000014921 8.5880711517 -0.3061469995 0.0000014181 8.7880416335 -0.3027109856 0.0000013390 8.9880121152 -0.2992749718 0.0000012545 9.1879825971 -0.2958389580 0.0000011634 9.3879530790 -0.2924029441 0.0000010631 9.5879235608 -0.2889669307 0.0000009558 9.7878940426 -0.2855309172 0.0000008424 9.9878645243 -0.2820949038 0.0000007226 10.1878350063 -0.2786588904 0.0000005947 10.3878054882 -0.2752228768 0.0000004547 10.5877759701 -0.2717868637 0.0000003051 10.7877464520 -0.2683508506 0.0000001469 10.9877169338 -0.2649148373 -0.0000000200 11.1876874158 -0.2614788242 -0.0000001956 11.3876578979 -0.2580428111 -0.0000003815 11.5876283799 -0.2546067980 -0.0000005728 11.7875988619 -0.2511707853 -0.0000007669 11.9875693437 -0.2477347723 -0.0000009618 12.1875398260 -0.2442987594 -0.0000011563 12.3875103083 -0.2408627471 -0.0000013490 12.5874807905 -0.2374267342 -0.0000015403 12.7874512729 -0.2339907219 -0.0000017305 12.9874217549 -0.2305547098 -0.0000019207 13.1873922381 -0.2271186970 -0.0000021116 13.3873627210 -0.2236826859 -0.0000023033 13.5873332038 -0.2202466728 -0.0000024953 13.8183568841 -0.2079721204 0.0000000000 14.0183558526 -0.2086148834 0.0000000000 14.2183548200 -0.2092576479 0.0000000000 14.4183537875 -0.2099004130 0.0000000000 14.6183527549 -0.2105431776 0.0000000000 14.8183517224 -0.2111859425 0.0000000000 15.0183506897 -0.2118287073 0.0000000000 15.2183496570 -0.2124714718 0.0000000000 15.4183486248 -0.2131142370 0.0000000000 15.6183475922 -0.2137570013 0.0000000000 15.8183465599 -0.2143997658 0.0000000000 16.0183455247 -0.2150425327 0.0000000000 16.2745250686 -0.1166096628 -0.0000000364 16.4744827193 -0.1124941637 -0.0000000357 16.6744403717 -0.1083786646 -0.0000000350 16.8743980243 -0.1042631659 -0.0000000343 17.0743556763 -0.1001476672 -0.0000000336 17.2743133285 -0.0960321687 -0.0000000328 17.4742709805 -0.0919166703 -0.0000000321 17.6742286332 -0.0878011715 -0.0000000313 17.8741862857 -0.0836856730 -0.0000000305 18.0741439380 -0.0795701745 -0.0000000296 18.2741015902 -0.0754546760 -0.0000000288 18.4740592426 -0.0713391778 -0.0000000279 18.6740168956 -0.0672236787 -0.0000000271 18.8739745485 -0.0631081802 -0.0000000262 19.0739322007 -0.0589926812 -0.0000000254 19.2738898530 -0.0548771823 -0.0000000245 19.4738475051 -0.0507616834 -0.0000000237 19.6738051563 -0.0466461844 -0.0000000228 -0.3135909788 -0.2858701433 0.0000014325 -0.1136204969 -0.2824341281 0.0000013488 0.0863499865 -0.2789981129 0.0000012676 0.2863204678 -0.2755620975 0.0000011943 0.4862909511 -0.2721260821 0.0000011298 0.6862614333 -0.2686900667 0.0000010724 0.8862319157 -0.2652540514 0.0000010227 1.0862023987 -0.2618180361 0.0000009804 1.2861728803 -0.2583820205 0.0000009476 1.4861433632 -0.2549460056 0.0000009212 1.6861138455 -0.2515099903 0.0000008986 1.8860843276 -0.2480739751 0.0000008786 2.0860548103 -0.2446379600 0.0000008595 2.2860252918 -0.2412019446 0.0000008388 2.4859957746 -0.2377659298 0.0000008147 2.6859662568 -0.2343299147 0.0000007880 2.8859367390 -0.2308938997 0.0000007608 3.0859072213 -0.2274578846 0.0000007364 3.2858777029 -0.2240218695 0.0000007213 3.4858481855 -0.2205858546 0.0000007198 3.6858186676 -0.2171498396 0.0000007297 3.8857891497 -0.2137138246 0.0000007512 4.0857596320 -0.2102778098 0.0000007829 4.2857301137 -0.2068417948 0.0000008266 4.4857005960 -0.2034057801 0.0000008808 4.6856710781 -0.1999697653 0.0000009412 4.8856415602 -0.1965337505 0.0000010066 5.0856120425 -0.1930977356 0.0000010760 5.2855825240 -0.1896617209 0.0000011498 5.4855530063 -0.1862257060 0.0000012264 5.6855234884 -0.1827896913 0.0000013036 5.8854939704 -0.1793536765 0.0000013793 6.0854644527 -0.1759176617 0.0000014512 6.2854349342 
[...]
      <PointData Scalars="radius">
        <DataArray type="Float32" Name="radius" format="ascii">
 0.1000000000 0.1000000000 0.1000000000 0.1000000000 0.1000000000 0.1000000000 0.1000000000 0.1000000000 0.1000000000 0.1000000000 0.1000000000 0.1000000000 0.1000000000 0.1000000000 0.1000000000 0.1000000000 0.1000000000 0.1000000000 0.1000000000 0.1000000000 0.1000000000 0.1000000000 0.1000000000 0.1000000000 0.1000000000 0.1000000000 0.1000000000 0.1000000000 0.1000000000 0.1000000000 0.1000000000 0.1000000000 0.1000000000 0.1000000000 0.1000000000 0.1000000000 0.1000000000 0.1000000000 0.1000000000 0.1000000000 0.1000000000 0.1000000000 0.1000000000 0.1000000000 0.1000000000 0.1000000000 0.1000000000 0.1000000000 0.1000000000 0.1000000000 0.1000000000 0.1000000000 0.1000000000 0.1000000000 0.1000000000 0.1000000000 0.1000000000 0.1000000000 0.1000000000 0.1000000000 0.1000000000 0.1000000000 0.1000000000 0.1000000000 0.1000000000 0.1000000000 0.1000000000 0.1000000000 0.1000000000 0.1000000000 0.1000000000 0.1000000000 0.1000000000 0.1000000000 0.1000000000 0.1000000000 0.1000000000 0.1000000000 0.1000000000 0.1000000000 0.1000000000 0.1000000000 0.1000000000 0.1000000000 0.1000000000 0.1000000000 0.1000000000 0.1000000000 0.1000000000 0.1000000000 0.1000000000 0.1000000000 0.1000000000 0.1000000000 0.1000000000 0.1000000000 0.1000000000 0.1000000000 0.1000000000 0.1000000000 0.1000000000 0.1000000000 0.1000000000 0.1000000000 0.1000000000 0.1000000000 0.1000000000 0.1000000000 0.1000000000 0.1000000000 0.1000000000 0.1000000000 0.1000000000 0.1000000000 0.1000000000 0.1000000000 0.1000000000 0.1000000000 0.1000000000 0.1000000000 0.1000000000 0.1000000000 0.1000000000 0.1000000000 0.1000000000 0.1000000000 0.1000000000 0.1000000000 0.1000000000 0.1000000000 0.1000000000 0.1000000000 0.1000000000 0.1000000000 0.1000000000 0.1000000000 0.1000000000 0.1000000000 0.1000000000 0.1000000000 0.1000000000 0.1000000000 0.1000000000 0.1000000000 0.1000000000 0.1000000000 0.1000000000 0.1000000000 0.1000000000 0.1000000000 0.1000000000 0.1000000000 0.1000000000 0.1000000000 0.1000000000 0.1000000000 0.1000000000 0.1000000000 0.1000000000 0.1000000000 0.1000000000 0.1000000000 0.1000000000 0.1000000000 0.1000000000 0.1000000000 0.1000000000 0.1000000000 0.1000000000 0.1000000000 0.1000000000 0.1000000000 0.1000000000 0.1000000000 0.1000000000 0.1000000000 0.1000000000 0.1000000000 0.1000000000 0.1000000000 0.1000000000 0.1000000000 0.1000000000 0.1000000000 0.1000000000 0.1000000000 0.1000000000 0.1000000000 0.1000000000 0.1000000000 0.1000000000 0.1000000000 0.1000000000 0.1000000000 0.1000000000 0.1000000000 0.1000000000 0.1000000000 0.1000000000 0.1000000000 0.1000000000 0.1000000000 0.1000000000 0.1000000000 0.1000000000 0.1000000000 0.1000000000 0.1000000000 0.1000000000 0.1000000000 0.1000000000 0.1000000000 0.1000000000 0.1000000000 0.1000000000 0.1000000000 0.1000000000 0.1000000000 0.1000000000 0.1000000000 0.1000000000 0.1000000000 0.1000000000 0.1000000000 0.1000000000 0.1000000000 0.1000000000 0.1000000000 0.1000000000 0.1000000000 0.1000000000 0.1000000000 0.1000000000 0.1000000000 0.1000000000 0.1000000000 0.1000000000 0.1000000000 0.1000000000 0.1000000000 0.1000000000 0.1000000000 0.1000000000 0.1000000000 0.1000000000 0.1000000000 0.1000000000 0.1000000000 0.1000000000 0.1000000000 0.1000000000 0.1000000000 0.1000000000 0.1000000000 0.1000000000 0.1000000000 0.1000000000 0.1000000000 0.1000000000 0.1000000000 0.1000000000 0.1000000000 0.1000000000 0.1000000000 0.1000000000 0.1000000000 0.1000000000 0.1000000000 0.1000000000 0.1000000000 0.1000000000 0.1000000000 0.1000000000 0.1000000000 0.1000000000 0.1000000000 0.1000000000 0.1000000000 0.1000000000 0.1000000000 0.1000000000 0.1000000000 0.1000000000 0.1000000000 0.1000000000 0.1000000000 0.1000000000 0.1000000000 0.1000000000 0.1000000000 0.1000000000 0.1000000000 0.1000000000 0.1000000000 0.1000000000 0.1000000000 0.1000000000 0.1000000000 0.1000000000 0.1000000000 0.1000000000 0.1000000000 0.1000000000 0.1000000000 0.1000000000 0.1000000000 0.1000000000 0.1000000000 0.1000000000 0.1000000000 0.1000000000 0.1000000000 0.1000000000 0.1000000000 0.1000000000 0.1000000000 0.1000000000 0.1000000000 0.1000000000 0.1000000000 0.1000000000 0.1000000000 0.1000000000 0.1000000000 0.1000000000 0.1000000000 0.1000000000 0.1000000000 0.1000000000 0.1000000000 0.1000000000 0.1000000000 0.1000000000 0.1000000000 0.1000000000 0.1000000000 0.1000000000 0.1000000000 0.1000000000 0.1000000000 0.1000000000 0.1000000000 0.1000000000 0.1000000000 0.1000000000 0.1000000000 0.1000000000 0.1000000000 0.1000000000 0.1000000000 0.1000000000 0.1000000000 0.1000000000 0.1000000000 0.1000000000 0.1000000000 0.1000000000 0.1000000000 0.1000000000 0.1000000000 0.1000000000 0.1000000000 0.1000000000 0.1000000000 0.1000000000 0.1000000000 0.1000000000 0.1000000000 0.1000000000 0.1000000000 0.1000000000 0.1000000000 0.1000000000 0.1000000000 0.1000000000 0.1000000000 0.1000000000 0.1000000000 0.1000000000 0.1000000000 0.1000000000 0.1000000000 0.1000000000 0.1000000000 0.1000000000 0.1000000000 0.1000000000 0.1000000000 0.1000000000 0.1000000000 0.1000000000 0.1000000000 0.1000000000 0.1000000000 0.1000000000 0.1000000000 0.1000000000 0.1000000000 0.1000000000 0.1000000000 0.1000000000 0.1000000000 0.1000000000 0.1000000000 0.1000000000 0.1000000000 0.1000000000 0.1000000000 0.1000000000 0.1000000000 0.1000000000 0.1000000000 0.1000000000 0.1000000000 0.1000000000 0.1000000000 0.1000000000 0.1000000000 0.1000000000 0.1000000000 0.1000000000 0.1000000000 0.1000000000 0.1000000000 0.1000000000 0.1000000000 0.1000000000 0.1000000000 0.1000000000 0.1000000000 0.1000000000 0.1000000000 0.1000000000 0.1000000000 0.1000000000 0.1000000000 0.1000000000 0.1000000000 0.1000000000 0.1000000000 0.1000000000 0.1000000000 0.1000000000 0.1000000000 0.1000000000 0.1000000000 0.1000000000 0.1000000000 0.1000000000 0.1000000000 0.1000000000 0.1000000000 0.1000000000 0.1000000000 0.1000000000 0.1000000000 0.1000000000 0.1000000000 0.1000000000 0.1000000000 0.1000000000 0.1000000000 0.1000000000 0.1000000000 0.1000000000 0.1000000000 0.1000000000 0.1000000000 0.1000000000 0.1000000000 0.1000000000 0.1000000000 0.1000000000 0.1000000000 0.1000000000 0.1000000000 0.1000000000 0.1000000000 0.1000000000 0.1000000000 0.1000000000 0.1000000000 0.1000000000 0.1000000000 0.1000000000 0.1000000000 0.1000000000 0.1000000000 0.1000000000 0.1000000000 0.1000000000 0.1000000000 0.1000000000 0.1000000000 0.1000000000 0.1000000000 0.1000000000 0.1000000000 0.1000000000 0.1000000000 0.1000000000 0.1000000000 0.1000000000 0.1000000000 0.1000000000 0.1000000000 0.1000000000 0.1000000000 0.1000000000 0.1000000000 0.1000000000 0.1000000000 0.1000000000 0.1000000000 0.1000000000 0.1000000000 0.1000000000 0.1000000000 0.1000000000 0.1000000000 0.1000000000 0.1000000000 0.1000000000 0.1000000000 0.1000000000 0.1000000000 0.1000000000 0.1000000000 0.1000000000 0.1000000000 0.1000000000 0.1000000000 0.1000000000 0.1000000000 0.1000000000 0.1000000000 0.1000000000 0.1000000000 0.1000000000 0.1000000000 0.1000000000 0.1000000000 0.1000000000 0.1000000000 0.1000000000 0.1000000000 0.1000000000 0.1000000000 0.1000000000 0.1000000000 0.1000000000 0.1000000000 0.1000000000 0.1000000000 0.1000000000 0.1000000000 0.1000000000 0.1000000000 0.1000000000 0.1000000000 0.1000000000 0.1000000000 0.1000000000 0.1000000000 0.1000000000 0.1000000000 0.1000000000 0.1000000000 0.1000000000 0.1000000000 0.1000000000 0.1000000000 0.1000000000 0.1000000000 0.1000000000 0.1000000000 0.1000000000 0.1000000000 0.1000000000 0.1000000000 0.1000000000 0.1000000000 0.1000000000 0.1000000000 0.1000000000 0.1000000000 0.1000000000 0.1000000000 0.1000000000 0.1000000000 0.1000000000 0.1000000000 0.1000000000 0.1000000000 0.1000000000 0.1000000000 0.1000000000 0.1000000000 0.1000000000 0.1000000000 0.1000000000 0.1000000000 0.1000000000 0.1000000000 0.1000000000 0.1000000000 0.1000000000 0.1000000000 0.1000000000 0.1000000000 0.1000000000 0.1000000000 0.1000000000 0.1000000000 0.1000000000 0.1000000000 0.1000000000 0.1000000000 0.1000000000 0.1000000000 0.1000000000 0.1000000000 0.1000000000 0.1000000000 0.1000000000 0.1000000000 0.1000000000 0.1000000000 0.1000000000 0.1000000000 0.1000000000 0.1000000000 0.1000000000 0.1000000000 0.1000000000 0.1000000000 0.1000000000 0.1000000000 0.1000000000 0.1000000000 0.1000000000 0.1000000000 0.1000000000 0.1000000000 0.1000000000 0.1000000000 0.1000000000 0.1000000000 0.1000000000 0.1000000000 0.1000000000 0.1000000000 0.1000000000 0.1000000000 0.1000000000 0.1000000000 0.1000000000 0.1000000000 0.1000000000 0.1000000000 0.1000000000 0.1000000000 0.1000000000 0.1000000000 0.1000000000 0.1000000000 0.1000000000 0.1000000000 0.1000000000 0.1000000000 0.1000000000 0.1000000000 0.1000000000 0.1000000000 0.1000000000 0.1000000000 0.1000000000 0.1000000000 0.1000000000 0.1000000000 0.1000000000 0.1000000000 0.1000000000 0.1000000000 0.1000000000 0.1000000000 0.1000000000 0.1000000000 0.1000000000 0.1000000000 0.1000000000 0.1000000000 0.1000000000 0.1000000000 0.1000000000 0.1000000000 0.1000000000 0.1000000000 0.1000000000 0.1000000000 0.1000000000 0.1000000000 0.1000000000 0.1000000000 0.1000000000 0.1000000000 0.1000000000 0.1000000000 0.1000000000 0.1000000000 0.1000000000 0.1000000000 0.1000000000 0.1000000000 0.1000000000 0.1000000000 0.1000000000 0.1000000000 0.1000000000 0.1000000000 0.1000000000 0.1000000000 0.1000000000 0.1000000000 0.1000000000 0.1000000000 0.1000000000 0.1000000000 0.1000000000 0.1000000000 0.1000000000 0.1000000000 0.1000000000 0.1000000000 0.1000000000 0.1000000000 0.1000000000 0.1000000000 0.1000000000 0.1000000000 0.1000000000 0.1000000000 0.1000000000 0.1000000000 0.1000000000 0.1000000000 0.1000000000 0.1000000000 0.1000000000 0.1000000000 0.1000000000 0.1000000000 0.1000000000 0.1000000000 0.1000000000 0.1000000000 0.1000000000 0.1000000000 0.1000000000 0.1000000000 0.1000000000 0.1000000000 0.1000000000 0.1000000000 0.1000000000 0.1000000000 0.1000000000 0.1000000000 0.1000000000 0.1000000000 0.1000000000 0.1000000000 0.1000000000 0.1000000000 0.1000000000 0.1000000000 0.1000000000 0.1000000000 0.1000000000 0.1000000000 0.1000000000 0.1000000000 0.1000000000 0.1000000000 0.1000000000 0.1000000000 0.1000000000 0.1000000000 0.1000000000 0.1000000000 0.1000000000 0.1000000000 0.1000000000 0.1000000000 0.1000000000 0.1000000000 0.1000000000 0.1000000000 0.1000000000 0.1000000000 0.1000000000 0.1000000000 0.1000000000 0.1000000000 0.1000000000 0.1000000000 0.1000000000 0.1000000000 0.1000000000 0.1000000000 0.1000000000 0.1000000000 0.1000000000 0.1000000000 0.1000000000 0.1000000000 0.1000000000 0.1000000000 0.1000000000 0.1000000000 0.1000000000 0.1000000000 0.1000000000 0.1000000000 0.1000000000 0.1000000000 0.1000000000 0.1000000000 0.1000000000 0.1000000000 0.1000000000 0.1000000000 0.1000000000 0.1000000000 0.1000000000 0.1000000000 0.1000000000 0.1000000000 0.1000000000 0.1000000000 0.1000000000 0.1000000000 0.1000000000 0.1000000000 0.1000000000 0.1000000000 0.1000000000 0.1000000000 0.1000000000 0.1000000000 0.1000000000 0.1000000000 0.1000000000 0.1000000000 0.1000000000 0.1000000000 0.1000000000 0.1000000000 0.1000000000 0.1000000000 0.1000000000 0.1000000000 0.1000000000 0.1000000000 0.1000000000 0.1000000000 0.1000000000 0.1000000000 0.1000000000 0.1000000000 0.1000000000 0.1000000000 0.1000000000 0.1000000000 0.1000000000 0.1000000000 0.1000000000 0.1000000000 0.1000000000 0.1000000000 0.1000000000 0.1000000000 0.1000000000 0.1000000000 0.1000000000 0.1000000000 0.1000000000 0.1000000000 0.1000000000 0.1000000000 0.1000000000 0.1000000000 0.1000000000 0.1000000000 0.1000000000 0.1000000000 0.1000000000 0.1000000000 0.1000000000 0.1000000000 0.1000000000 0.1000000000 0.1000000000 0.1000000000 0.1000000000 0.1000000000 0.1000000000 0.1000000000 0.1000000000 0.1000000000 0.1000000000 0.1000000000 0.1000000000 0.1000000000 0.1000000000 0.1000000000 0.1000000000 0.1000000000 0.1000000000 0.1000000000 0.1000000000 0.1000000000 0.1000000000 0.1000000000 0.1000000000 0.1000000000 0.1000000000 0.1000000000 0.1000000000 0.1000000000 0.1000000000 0.1000000000 0.1000000000 0.1000000000 0.1000000000 0.1000000000 0.1000000000 0.1000000000 0.1000000000 0.1000000000 0.1000000000 0.1000000000 0.1000000000 0.1000000000 0.1000000000 0.1000000000 0.1000000000 0.1000000000 0.1000000000 0.1000000000 0.1000000000 0.1000000000 0.1000000000 0.1000000000 0.1000000000 0.1000000000 0.1000000000 0.1000000000 0.1000000000 0.1000000000 0.1000000000 0.1000000000 0.1000000000 0.1000000000 0.1000000000 0.1000000000 0.1000000000 0.1000000000 0.1000000000 0.1000000000 0.1000000000 0.1000000000 0.1000000000 0.1000000000 0.1000000000 0.1000000000 0.1000000000 0.1000000000 0.1000000000 0.1000000000 0.1000000000 0.1000000000 0.1000000000 0.1000000000 0.1000000000 0.1000000000 0.1000000000 0.1000000000 0.1000000000 0.1000000000 0.1000000000 0.1000000000 0.1000000000 0.1000000000 0.1000000000 0.1000000000 0.1000000000 0.1000000000 0.1000000000 0.1000000000 0.1000000000 0.1000000000 0.1000000000 0.1000000000 0.1000000000 0.1000000000 0.1000000000 0.1000000000 0.1000000000 0.1000000000 0.1000000000 0.1000000000 0.1000000000 0.1000000000 0.1000000000 0.1000000000 0.1000000000 0.1000000000 0.1000000000 0.1000000000 0.1000000000 0.1000000000 0.1000000000 0.1000000000 0.1000000000 0.1000000000 0.1000000000 0.1000000000 0.1000000000 0.1000000000 0.1000000000 0.1000000000 0.1000000000 0.1000000000 0.1000000000 0.1000000000 0.1000000000 0.1000000000 0.1000000000 0.1000000000 0.1000000000 0.1000000000 0.1000000000 0.1000000000 0.1000000000 0.1000000000 0.1000000000 0.1000000000 0.1000000000 0.1000000000 0.1000000000 0.1000000000 0.1000000000 0.1000000000 0.1000000000 0.1000000000 0.1000000000 0.1000000000 0.1000000000 0.1000000000 0.1000000000 0.1000000000 0.1000000000 0.1000000000 0.1000000000 0.1000000000 0.1000000000 0.1000000000 0.1000000000 0.1000000000 0.1000000000 0.1000000000 0.1000000000 0.1000000000 0.1000000000 0.1000000000 0.1000000000 0.1000000000 0.1000000000 0.1000000000 0.1000000000 0.1000000000 0.1000000000 0.1000000000 0.1000000000 0.1000000000 0.1000000000 0.1000000000 0.1000000000 0.1000000000 0.1000000000 0.1000000000 0.1000000000 0.1000000000 0.1000000000 0.1000000000 0.1000000000 0.1000000000 0.1000000000 0.1000000000 0.1000000000 0.1000000000 0.1000000000 0.1000000000 0.1000000000 0.1000000000 0.1000000000 0.1000000000 0.1000000000 0.1000000000 0.1000000000 0.1000000000 0.1000000000 0.1000000000 0.1000000000 0.1000000000 0.1000000000 0.1000000000 0.1000000000 0.1000000000 0.1000000000 0.1000000000 0.1000000000 0.1000000000 0.1000000000 0.1000000000 0.1000000000 0.1000000000 0.1000000000 0.1000000000 0.1000000000 0.1000000000 0.1000000000 0.1000000000 0.1000000000 0.1000000000 0.1000000000 0.1000000000 0.1000000000 0.1000000000 0.1000000000 0.1000000000 0.1000000000 0.1000000000 0.1000000000 0.1000000000 0.1000000000 0.1000000000 0.1000000000 0.1000000000 0.1000000000 0.1000000000 0.1000000000 0.1000000000 0.1000000000 0.1000000000 0.1000000000 0.1000000000 0.1000000000 0.1000000000 0.1000000000 0.1000000000 0.1000000000 0.1000000000 0.1000000000 0.1000000000 0.1000000000 0.1000000000 0.1000000000 0.1000000000 0.1000000000 0.1000000000 0.1000000000 0.1000000000 0.1000000000 0.1000000000 0.1000000000 0.1000000000 0.1000000000 0.1000000000 0.1000000000 0.1000000000 0.1000000000 0.1000000000 0.1000000000 0.1000000000 0.1000000000 0.1000000000 0.1000000000 0.1000000000 0.1000000000 0.1000000000 0.1000000000 0.1000000000 0.1000000000 0.1000000000 0.1000000000 0.1000000000 0.1000000000 0.1000000000 0.1000000000 0.1000000000 0.1000000000 0.1000000000 0.1000000000 0.1000000000 0.1000000000 0.1000000000 0.1000000000 0.1000000000 0.1000000000 0.1000000000 0.1000000000 0.1000000000 0.1000000000 0.1000000000 0.1000000000 0.1000000000 0.1000000000 0.1000000000 0.1000000000 0.1000000000 0.1000000000 0.1000000000 0.1000000000 0.1000000000 0.1000000000 0.1000000000 0.1000000000 0.1000000000 0.1000000000 0.1000000000 0.1000000000 0.1000000000 0.1000000000 0.1000000000 0.1000000000 0.1000000000 0.1000000000 0.1000000000 0.1000000000 0.1000000000 0.1000000000 0.1000000000 0.1000000000 0.1000000000 0.1000000000 0.1000000000 0.1000000000 0.1000000000 0.1000000000 0.1000000000 0.1000000000 0.1000000000 0.1000000000 0.1000000000 0.1000000000 0.1000000000 0.1000000000 0.1000000000 0.1000000000 0.1000000000 0.1000000000 0.1000000000 0.1000000000 0.1000000000 0.1000000000 0.1000000000 0.1000000000 0.1000000000 0.1000000000 0.1000000000 0.1000000000 0.1000000000 0.1000000000 0.1000000000 0.1000000000 0.1000000000 0.1000000000 0.1000000000 0.1000000000 0.1000000000 0.1000000000 0.1000000000 0.1000000000 0.1000000000 0.1000000000 0.1000000000 0.1000000000 0.1000000000 0.1000000000 0.1000000000 0.1000000000 0.1000000000 0.1000000000 0.1000000000 0.1000000000 0.1000000000 0.1000000000 0.1000000000 0.1000000000 0.1000000000 0.1000000000 0.1000000000 0.1000000000 0.1000000000 0.1000000000 0.1000000000 0.1000000000 0.1000000000 0.1000000000 0.1000000000 0.1000000000 0.1000000000 0.1000000000 0.1000000000 0.1000000000 0.1000000000 0.1000000000 0.1000000000 0.1000000000 0.1000000000 0.1000000000 0.1000000000 0.1000000000 0.1000000000 0.1000000000 0.1000000000 0.1000000000 0.1000000000 0.1000000000 0.1000000000 0.1000000000 0.1000000000 0.1000000000 0.1000000000 0.1000000000 0.1000000000 0.1000000000 0.1000000000 0.1000000000 0.1000000000 0.1000000000 0.1000000000 0.1000000000 0.1000000000 0.1000000000 0.1000000000 0.1000000000 0.1000000000 0.1000000000 0.1000000000 0.1000000000 0.1000000000 0.1000000000 0.1000000000 0.1000000000 0.1000000000 0.1000000000 0.1000000000 0.1000000000 0.1000000000 0.1000000000 0.1000000000 0.1000000000 0.1000000000 0.1000000000 0.1000000000 0.1000000000 0.1000000000 0.1000000000 0.1000000000 0.1000000000 0.1000000000 0.1000000000 0.1000000000 0.1000000000 0.1000000000 0.1000000000 0.1000000000 0.1000000000 0.1000000000 0.1000000000 0.1000000000 0.1000000000 0.1000000000 0.1000000000 0.1000000000 0.1000000000 0.1000000000 0.1000000000 0.1000000000 0.1000000000 0.1000000000 0.1000000000 0.1000000000 0.1000000000 0.1000000000 0.1000000000 0.1000000000 0.1000000000 0.1000000000 0.1000000000 0.1000000000 0.1000000000 0.1000000000 0.1000000000 0.1000000000 0.1000000000 0.1000000000 0.1000000000 0.1000000000 0.1000000000 0.1000000000 0.1000000000 0.1000000000 0.1000000000 0.1000000000 0.1000000000 0.1000000000 0.1000000000 0.1000000000 0.1000000000 0.1000000000 0.1000000000 0.1000000000 0.1000000000 0.1000000000 0.1000000000 0.1000000000 0.1000000000 0.1000000000 0.1000000000 0.1000000000 0.1000000000 0.1000000000 0.1000000000 0.1000000000 0.1000000000 0.1000000000 0.1000000000 0.1000000000 0.1000000000 0.1000000000 0.1000000000 0.1000000000 0.1000000000 0.1000000000 0.1000000000 0.1000000000 0.1000000000 0.1000000000 0.1000000000 0.1000000000 0.1000000000 0.1000000000 0.1000000000 0.1000000000 0.1000000000 0.1000000000 0.1000000000 0.1000000000 0.1000000000 0.1000000000 0.1000000000 0.1000000000 0.1000000000 0.1000000000 0.1000000000 0.1000000000 0.1000000000 0.1000000000 0.1000000000 0.1000000000 0.1000000000 0.1000000000 0.1000000000 0.1000000000 0.1000000000 0.1000000000 0.1000000000 0.1000000000 0.1000000000 0.1000000000 0.1000000000 0.1000000000 0.1000000000 0.1000000000 0.1000000000 0.1000000000 0.1000000000 0.1000000000 0.1000000000 0.1000000000 0.1000000000 0.1000000000 0.1000000000 0.1000000000 0.1000000000 0.1000000000 0.1000000000 0.1000000000 0.1000000000 0.1000000000 0.1000000000 0.1000000000 0.1000000000 0.1000000000 0.1000000000 0.1000000000 0.1000000000 0.1000000000 0.1000000000 0.1000000000 0.1000000000 0.1000000000 0.1000000000 0.1000000000 0.1000000000 0.1000000000 0.1000000000 0.1000000000 0.1000000000 0.1000000000 0.1000000000 0.1000000000 0.1000000000 0.1000000000 0.1000000000 0.1000000000 0.10000000