<?xml version="1.0"?>
<VTKFile type="UnstructuredGrid" version="0.1" byte_order="LittleEndian">
  <UnstructuredGrid>
    <FieldData>
      <DataArray type="Float32" Name="TIME"  NumberOfTuples="1" format="ascii"> 0.2500000000 </DataArray>
      <DataArray type="Int32"   Name="STEP"  NumberOfTuples="1" format="ascii"> 62500 </DataArray>
    </FieldData>
    <Piece NumberOfPoints="11600" NumberOfCells="11600">
      <Points>
        <DataArray type="Float32" NumberOfComponents="3" format="ascii">
 -0.0443762045 -0.0906077437 0.0000000000 0.1556229293 -0.0898956472 0.0000000000 0.3556220970 -0.0891832752 0.0000000000 0.5556245398 -0.0884701183 0.0000000000 0.7556242519 -0.0877565867 0.0000000000 0.9556243859 -0.0870429091 0.0000000000 1.1556245551 -0.0863288167 0.0000000000 1.3556243924 -0.0856149572 0.0000000000 1.5556284733 -0.0849005563 0.0000000000 1.7556283938 -0.0841863449 0.0000000000 1.9556286450 -0.0834727087 0.0000000000 2.1556290566 -0.0827594190 0.0000000000 2.3556293114 -0.0820465284 0.0000000000 2.5556367582 -0.0813327079 0.0000000000 2.7556369495 -0.0806177583 0.0000000000 2.9556373930 -0.0799036017 0.0000000000 3.1556378266 -0.0791898836 0.0000000000 3.3556379431 -0.0784764289 0.0000000000 3.5556436794 -0.0777625046 0.0000000000 3.7556439095 -0.0770478413 0.0000000000 3.9556444178 -0.0763332457 0.0000000000 4.1556448407 -0.0756185598 0.0000000000 4.3556449112 -0.0749042716 0.0000000000 4.5556512767 -0.0741897455 0.0000000000 4.7556516700 -0.0734739085 0.0000000000 4.9556524015 -0.0727581479 0.0000000000 5.1556530817 -0.0720419408 0.0000000000 5.3556532789 -0.0713259351 0.0000000000 5.5556582748 -0.0706098063 0.0000000000 5.7556582873 -0.0698932037 0.0000000000 5.9556584741 -0.0691767820 0.0000000000 6.1556584583 -0.0684604894 0.0000000000 6.3556581382 -0.0677443291 0.0000000000 6.5556606063 -0.0670274945 0.0000000000 6.7556598330 -0.0663107231 0.0000000000 6.9556592003 -0.0655943596 0.0000000000 7.1556585117 -0.0648781374 0.0000000000 7.3556577157 -0.0641620608 0.0000000000 7.5556589399 -0.0634453877 0.0000000000 7.7556575929 -0.0627280107 0.0000000000 7.9556559676 -0.0620107619 0.0000000000 8.1556542084 -0.0612939949 0.0000000000 8.3556525002 -0.0605777296 0.0000000000 8.5556506549 -0.0598616437 0.0000000000 8.7556491063 -0.0591455657 0.0000000000 8.9556475948 -0.0584295042 0.0000000000 9.1556461053 -0.0577133296 0.0000000000 9.3556446334 -0.0569968737 0.0000000000 9.5556429638 -0.0562803229 0.0000000000 9.7556414878 -0.0555638031 0.0000000000 9.9556399928 -0.0548474593 0.0000000000 10.1556385106 -0.0541311542 0.0000000000 10.3556369854 -0.0534147811 0.0000000000 10.5556352007 -0.0526984772 0.0000000000 10.7556335593 -0.0519822707 0.0000000000 10.9556319906 -0.0512664677 0.0000000000 11.1556304825 -0.0505509918 0.0000000000 11.3556294100 -0.0498351613 0.0000000000 11.5556285154 -0.0491188688 0.0000000000 11.7556269737 -0.0484021594 0.0000000000 11.9556253186 -0.0476857337 0.0000000000 12.1556237210 -0.0469693367 0.0000000000 12.3556222752 -0.0462527294 0.0000000000 12.5556213109 -0.0455355594 0.0000000000 12.7556201274 -0.0448182390 0.0000000000 12.9556204059 -0.0441006077 0.0000000000 13.1556193324 -0.0433824162 0.0000000000 13.3556183280 -0.0426642399 0.0000000000 13.5556188160 -0.0419455294 0.0000000000 13.7556177797 -0.0412260955 0.0000000000 13.9556182568 -0.0405057947 0.0000000000 14.1570061332 -0.0405035066 0.0000000000 14.3570059270 -0.0401844285 0.0000000000 14.5570059990 -0.0398655482 0.0000000000 14.7570058529 -0.0395467757 0.0000000000 14.9570068028 -0.0392279841 0.0000000000 15.1570067141 -0.0389088520 0.0000000000 15.3570066172 -0.0385897165 0.0000000000 15.5570071329 -0.0382704245 0.0000000000 15.7570070031 -0.0379509640 0.0000000000 15.9570073940 -0.0376313041 0.0000000000 16.1570072139 -0.0373114142 0.0000000000 16.3570070388 -0.0369914642 0.0000000000 16.5609498234 -0.0330100305 0.0000000000 16.7609497024 -0.0326660805 0.0000000000 16.9609497294 -0.0323221112 0.0000000000 17.1609495281 -0.0319781855 0.0000000000 17.3609493222 -0.0316343356 0.0000000000 17.5609489126 -0.0312904094 0.0000000000 17.7609483750 -0.0309462979 0.0000000000 17.9609473880 -0.0306024645 0.0000000000 18.1609466232 -0.0302589882 0.0000000000 18.3609457713 -0.0299154955 0.0000000000 18.5609450192 -0.0295720109 0.0000000000 18.7609444539 -0.0292286558 0.0000000000 18.9609438616 -0.0288851585 0.0000000000 19.1609434391 -0.0285419823 0.0000000000 19.3609431339 -0.0281993272 0.0000000000 19.5609430981 -0.0278567534 0.0000000000 19.7609430672 -0.0275139199 0.0000000000 0.0550067571 0.0829521177 0.0000000000 0.2550059491 0.0836645191 0.0000000000 0.4550058726 0.0843770511 0.0000000000 0.6550061569 0.0850904685 0.0000000000 0.8550062516 0.0858039765 0.0000000000 1.0550064948 0.0865178712 0.0000000000 1.2550069732 0.0872319258 0.0000000000 1.4550082623 0.0879458063 0.0000000000 1.6550096630 0.0886601785 0.0000000000 1.8550104761 0.0893740527 0.0000000000 2.0550112817 0.0900875009 0.0000000000 2.2550124245 0.0908006483 0.0000000000 2.4550147614 0.0915136563 0.0000000000 2.6550170719 0.0922284040 0.0000000000 2.8550183082 0.0929428976 0.0000000000 3.0550192723 0.0936568630 0.0000000000 3.2550202609 0.0943705129 0.0000000000 3.4550221430 0.0950840392 0.0000000000 3.6550240004 0.0957985639 0.0000000000 3.8550248726 0.0965131168 0.0000000000 4.0550256048 0.0972277262 0.0000000000 4.2550265512 0.0979422657 0.0000000000 4.4550285686 0.0986564528 0.0000000000 4.6550305894 0.0993719226 0.0000000000 4.8550316848 0.1000876031 0.0000000000 5.0550326120 0.1008035734 0.0000000000 5.2550336096 0.1015197493 0.0000000000 5.4550353615 0.1022356322 0.0000000000 5.6550369917 0.1029522076 0.0000000000 5.8550376428 0.1036686709 0.0000000000 6.0550379993 0.1043850469 0.0000000000 6.2550382507 0.1051013262 0.0000000000 6.4550388131 0.1058177496 0.0000000000 6.6550392322 0.1065346998 0.0000000000 6.8550389875 0.1072512308 0.0000000000 7.0550385810 0.1079675242 0.0000000000 7.2550380909 0.1086837119 0.0000000000 7.4550376738 0.1093999612 0.0000000000 7.6550369906 0.1101171629 0.0000000000 7.8550357199 0.1108345186 0.0000000000 8.0550343043 0.1115515866 0.0000000000 8.2550327751 0.1122681650 0.0000000000 8.4550311287 0.1129843925 0.0000000000 8.6550295078 0.1137004659 0.0000000000 8.8550279282 0.1144165738 0.0000000000 9.0550263897 0.1151327034 0.0000000000 9.2550248387 0.1158490025 0.0000000000 9.4550232776 0.1165654872 0.0000000000 9.6550217504 0.1172819698 0.0000000000 9.8550202944 0.1179983779 0.0000000000 10.0550188186 0.1187147186 0.0000000000 10.2550172930 0.1194310554 0.0000000000 10.4550157136 0.1201474088 0.0000000000 10.6550141301 0.1208636794 0.0000000000 10.8550126002 0.1215797208 0.0000000000 11.0550111353 0.1222953830 0.0000000000 11.2550097159 0.1230109504 0.0000000000 11.4550083779 0.1237269875 0.0000000000 11.6550069526 0.1244435748 0.0000000000 11.8550053889 0.1251601692 0.0000000000 12.0550038068 0.1258765523 0.0000000000 12.2550022501 0.1265930010 0.0000000000 12.4550008202 0.1273097661 0.0000000000 12.6549995629 0.1280270042 0.0000000000 12.8549985641 0.1287443629 0.0000000000 13.0549976771 0.1294623665 0.0000000000 13.2549967687 0.1301804817 0.0000000000 13.4549960065 0.1308987580 0.0000000000 13.6549952372 0.1316179456 0.0000000000 13.8549942806 0.1323374942 0.0000000000 14.0567297549 0.1325419044 0.0000000000 14.2567296467 0.1328608846 0.0000000000 14.4567296983 0.1331798327 0.0000000000 14.6567298104 0.1334986416 0.0000000000 14.8567300349 0.1338173695 0.0000000000 15.0567302439 0.1341364023 0.0000000000 15.2567302682 0.1344555199 0.0000000000 15.4567303170 0.1347747139 0.0000000000 15.6567303641 0.1350941091 0.0000000000 15.8567303384 0.1354136237 0.0000000000 16.0567302910 0.1357334346 0.0000000000 16.2567300918 0.1360533401 0.0000000000 16.4606521115 0.1400227412 0.0000000000 16.6606519797 0.1403666307 0.0000000000 16.8606519532 0.1407106434 0.0000000000 17.0606518602 0.1410546599 0.0000000000 17.2606516443 0.1413985570 0.0000000000 17.4606512808 0.1417424755 0.0000000000 17.6606507977 0.1420865602 0.0000000000 17.8606502304 0.1424305336 0.0000000000 18.0606495846 0.1427741978 0.0000000000 18.2606488750 0.1431176823 0.0000000000 18.4606481820 0.1434611696 0.0000000000 18.6606475693 0.1438045869 0.0000000000 18.8606470249 0.1441480062 0.0000000000 19.0606466134 0.1444913286 0.0000000000 19.2606463491 0.1448342271 0.0000000000 19.4606461723 0.1451768253 0.0000000000 19.6606460070 0.1455195187 0.0000000000 19.8606457987 0.1458625041 0.0000000000 -0.0456097361 0.2557997145 0.0000000000 0.1543891711 0.2565123063 0.0000000000 0.3543882560 0.2572248248 0.0000000000 0.5543886756 0.2579376866 0.0000000000 0.7543883718 0.2586510643 0.0000000000 0.9543884044 0.2593646791 0.0000000000 1.1543886782 0.2600785776 0.0000000000 1.3543889611 0.2607924750 0.0000000000 1.5543915713 0.2615066932 0.0000000000 1.7543921414 0.2622205768 0.0000000000 1.9543930563 0.2629342103 0.0000000000 2.1543940034 0.2636475291 0.0000000000 2.3543947576 0.2643607712 0.0000000000 2.5543982273 0.2650746478 0.0000000000 2.7543989683 0.2657891010 0.0000000000 2.9544000001 0.2665033948 0.0000000000 3.1544009310 0.2672173153 0.0000000000 3.3544015296 0.2679311475 0.0000000000 3.5544046107 0.2686450426 0.0000000000 3.7544051017 0.2693595514 0.0000000000 3.9544057723 0.2700741344 0.0000000000 4.1544065228 0.2707887459 0.0000000000 4.3544071378 0.2715032854 0.0000000000 4.5544103870 0.2722179067 0.0000000000 4.7544110054 0.2729334158 0.0000000000 4.9544118578 0.2736492038 0.0000000000 5.1544126828 0.2743652764 0.0000000000 5.3544132652 0.2750814220 0.0000000000 5.5544163169 0.2757975530 0.0000000000 5.7544167098 0.2765140268 0.0000000000 5.9544171588 0.2772304658 0.0000000000 6.1544174722 0.2779468681 0.0000000000 6.3544174429 0.2786632863 0.0000000000 6.5544188785 0.2793800169 0.0000000000 6.7544185986 0.2800966492 0.0000000000 6.9544183152 0.2808130664 0.0000000000 7.1544179279 0.2815293361 0.0000000000 7.3544172488 0.2822456594 0.0000000000 7.5544165489 0.2
[...]
      <PointData Scalars="radius">
        <DataArray type="Float32" Name="radius" format="ascii">
 0.1000000000 0.1000000000 0.1000000000 0.1000000000 0.1000000000 0.1000000000 0.1000000000 0.1000000000 0.1000000000 0.1000000000 0.1000000000 0.1000000000 0.1000000000 0.1000000000 0.1000000000 0.1000000000 0.1000000000 0.1000000000 0.1000000000 0.1000000000 0.1000000000 0.1000000000 0.1000000000 0.1000000000 0.1000000000 0.1000000000 0.1000000000 0.1000000000 0.1000000000 0.1000000000 0.1000000000 0.1000000000 0.1000000000 0.1000000000 0.1000000000 0.1000000000 0.1000000000 0.1000000000 0.1000000000 0.1000000000 0.1000000000 0.1000000000 0.1000000000 0.1000000000 0.1000000000 0.1000000000 0.1000000000 0.1000000000 0.1000000000 0.1000000000 0.1000000000 0.1000000000 0.1000000000 0.1000000000 0.1000000000 0.1000000000 0.1000000000 0.1000000000 0.1000000000 0.1000000000 0.1000000000 0.1000000000 0.1000000000 0.1000000000 0.1000000000 0.1000000000 0.1000000000 0.1000000000 0.1000000000 0.1000000000 0.1000000000 0.1000000000 0.1000000000 0.1000000000 0.1000000000 0.1000000000 0.1000000000 0.1000000000 0.1000000000 0.1000000000 0.1000000000 0.1000000000 0.1000000000 0.1000000000 0.1000000000 0.1000000000 0.1000000000 0.1000000000 0.1000000000 0.1000000000 0.1000000000 0.1000000000 0.1000000000 0.1000000000 0.1000000000 0.1000000000 0.1000000000 0.1000000000 0.1000000000 0.1000000000 0.1000000000 0.1000000000 0.1000000000 0.1000000000 0.1000000000 0.1000000000 0.1000000000 0.1000000000 0.1000000000 0.1000000000 0.1000000000 0.1000000000 0.1000000000 0.1000000000 0.1000000000 0.1000000000 0.1000000000 0.1000000000 0.1000000000 0.1000000000 0.1000000000 0.1000000000 0.1000000000 0.1000000000 0.1000000000 0.1000000000 0.1000000000 0.1000000000 0.1000000000 0.1000000000 0.1000000000 0.1000000000 0.1000000000 0.1000000000 0.1000000000 0.1000000000 0.1000000000 0.1000000000 0.1000000000 0.1000000000 0.1000000000 0.1000000000 0.1000000000 0.1000000000 0.1000000000 0.1000000000 0.1000000000 0.1000000000 0.1000000000 0.1000000000 0.1000000000 0.1000000000 0.1000000000 0.1000000000 0.1000000000 0.1000000000 0.1000000000 0.1000000000 0.1000000000 0.1000000000 0.1000000000 0.1000000000 0.1000000000 0.1000000000 0.1000000000 0.1000000000 0.1000000000 0.1000000000 0.1000000000 0.1000000000 0.1000000000 0.1000000000 0.1000000000 0.1000000000 0.1000000000 0.1000000000 0.1000000000 0.1000000000 0.1000000000 0.1000000000 0.1000000000 0.1000000000 0.1000000000 0.1000000000 0.1000000000 0.1000000000 0.1000000000 0.1000000000 0.1000000000 0.1000000000 0.1000000000 0.1000000000 0.1000000000 0.1000000000 0.1000000000 0.1000000000 0.1000000000 0.1000000000 0.1000000000 0.1000000000 0.1000000000 0.1000000000 0.1000000000 0.1000000000 0.1000000000 0.1000000000 0.1000000000 0.1000000000 0.1000000000 0.1000000000 0.1000000000 0.1000000000 0.1000000000 0.1000000000 0.1000000000 0.1000000000 0.1000000000 0.1000000000 0.1000000000 0.1000000000 0.1000000000 0.1000000000 0.1000000000 0.1000000000 0.1000000000 0.1000000000 0.1000000000 0.1000000000 0.1000000000 0.1000000000 0.1000000000 0.1000000000 0.1000000000 0.1000000000 0.1000000000 0.1000000000 0.1000000000 0.1000000000 0.1000000000 0.1000000000 0.1000000000 0.1000000000 0.1000000000 0.1000000000 0.1000000000 0.1000000000 0.1000000000 0.1000000000 0.1000000000 0.1000000000 0.1000000000 0.1000000000 0.1000000000 0.1000000000 0.1000000000 0.1000000000 0.1000000000 0.1000000000 0.1000000000 0.1000000000 0.1000000000 0.1000000000 0.1000000000 0.1000000000 0.1000000000 0.1000000000 0.1000000000 0.1000000000 0.1000000000 0.1000000000 0.1000000000 0.1000000000 0.1000000000 0.1000000000 0.1000000000 0.1000000000 0.1000000000 0.1000000000 0.1000000000 0.1000000000 0.1000000000 0.1000000000 0.1000000000 0.1000000000 0.1000000000 0.1000000000 0.1000000000 0.1000000000 0.1000000000 0.1000000000 0.1000000000 0.1000000000 0.1000000000 0.1000000000 0.1000000000 0.1000000000 0.1000000000 0.1000000000 0.1000000000 0.1000000000 0.1000000000 0.1000000000 0.1000000000 0.1000000000 0.1000000000 0.1000000000 0.1000000000 0.1000000000 0.1000000000 0.1000000000 0.1000000000 0.1000000000 0.1000000000 0.1000000000 0.1000000000 0.1000000000 0.1000000000 0.1000000000 0.1000000000 0.1000000000 0.1000000000 0.1000000000 0.1000000000 0.1000000000 0.1000000000 0.1000000000 0.1000000000 0.1000000000 0.1000000000 0.1000000000 0.1000000000 0.1000000000 0.1000000000 0.1000000000 0.1000000000 0.1000000000 0.1000000000 0.1000000000 0.1000000000 0.1000000000 0.1000000000 0.1000000000 0.1000000000 0.1000000000 0.1000000000 0.1000000000 0.1000000000 0.1000000000 0.1000000000 0.1000000000 0.1000000000 0.1000000000 0.1000000000 0.1000000000 0.1000000000 0.1000000000 0.1000000000 0.1000000000 0.1000000000 0.1000000000 0.1000000000 0.1000000000 0.1000000000 0.1000000000 0.1000000000 0.1000000000 0.1000000000 0.1000000000 0.1000000000 0.1000000000 0.1000000000 0.1000000000 0.1000000000 0.1000000000 0.1000000000 0.1000000000 0.1000000000 0.1000000000 0.1000000000 0.1000000000 0.1000000000 0.1000000000 0.1000000000 0.1000000000 0.1000000000 0.1000000000 0.1000000000 0.1000000000 0.1000000000 0.1000000000 0.1000000000 0.1000000000 0.1000000000 0.1000000000 0.1000000000 0.1000000000 0.1000000000 0.1000000000 0.1000000000 0.1000000000 0.1000000000 0.1000000000 0.1000000000 0.1000000000 0.1000000000 0.1000000000 0.1000000000 0.1000000000 0.1000000000 0.1000000000 0.1000000000 0.1000000000 0.1000000000 0.1000000000 0.1000000000 0.1000000000 0.1000000000 0.1000000000 0.1000000000 0.1000000000 0.1000000000 0.1000000000 0.1000000000 0.1000000000 0.1000000000 0.1000000000 0.1000000000 0.1000000000 0.1000000000 0.1000000000 0.1000000000 0.1000000000 0.1000000000 0.1000000000 0.1000000000 0.1000000000 0.1000000000 0.1000000000 0.1000000000 0.1000000000 0.1000000000 0.1000000000 0.1000000000 0.1000000000 0.1000000000 0.1000000000 0.1000000000 0.1000000000 0.1000000000 0.1000000000 0.1000000000 0.1000000000 0.1000000000 0.1000000000 0.1000000000 0.1000000000 0.1000000000 0.1000000000 0.1000000000 0.1000000000 0.1000000000 0.1000000000 0.1000000000 0.1000000000 0.1000000000 0.1000000000 0.1000000000 0.1000000000 0.1000000000 0.1000000000 0.1000000000 0.1000000000 0.1000000000 0.1000000000 0.1000000000 0.1000000000 0.1000000000 0.1000000000 0.1000000000 0.1000000000 0.1000000000 0.1000000000 0.1000000000 0.1000000000 0.1000000000 0.1000000000 0.1000000000 0.1000000000 0.1000000000 0.1000000000 0.1000000000 0.1000000000 0.1000000000 0.1000000000 0.1000000000 0.1000000000 0.1000000000 0.1000000000 0.1000000000 0.1000000000 0.1000000000 0.1000000000 0.1000000000 0.1000000000 0.1000000000 0.1000000000 0.1000000000 0.1000000000 0.1000000000 0.1000000000 0.1000000000 0.1000000000 0.1000000000 0.1000000000 0.1000000000 0.1000000000 0.1000000000 0.1000000000 0.1000000000 0.1000000000 0.1000000000 0.1000000000 0.1000000000 0.1000000000 0.1000000000 0.1000000000 0.1000000000 0.1000000000 0.1000000000 0.1000000000 0.1000000000 0.1000000000 0.1000000000 0.1000000000 0.1000000000 0.1000000000 0.1000000000 0.1000000000 0.1000000000 0.1000000000 0.1000000000 0.1000000000 0.1000000000 0.1000000000 0.1000000000 0.1000000000 0.1000000000 0.1000000000 0.1000000000 0.1000000000 0.1000000000 0.1000000000 0.1000000000 0.1000000000 0.1000000000 0.1000000000 0.1000000000 0.1000000000 0.1000000000 0.1000000000 0.1000000000 0.1000000000 0.1000000000 0.1000000000 0.1000000000 0.1000000000 0.1000000000 0.1000000000 0.1000000000 0.1000000000 0.1000000000 0.1000000000 0.1000000000 0.1000000000 0.1000000000 0.1000000000 0.1000000000 0.1000000000 0.1000000000 0.1000000000 0.1000000000 0.1000000000 0.1000000000 0.1000000000 0.1000000000 0.1000000000 0.1000000000 0.1000000000 0.1000000000 0.1000000000 0.1000000000 0.1000000000 0.1000000000 0.1000000000 0.1000000000 0.1000000000 0.1000000000 0.1000000000 0.1000000000 0.1000000000 0.1000000000 0.1000000000 0.1000000000 0.1000000000 0.1000000000 0.1000000000 0.1000000000 0.1000000000 0.1000000000 0.1000000000 0.1000000000 0.1000000000 0.1000000000 0.1000000000 0.1000000000 0.1000000000 0.1000000000 0.1000000000 0.1000000000 0.1000000000 0.1000000000 0.1000000000 0.1000000000 0.1000000000 0.1000000000 0.1000000000 0.1000000000 0.1000000000 0.1000000000 0.1000000000 0.1000000000 0.1000000000 0.1000000000 0.1000000000 0.1000000000 0.1000000000 0.1000000000 0.1000000000 0.1000000000 0.1000000000 0.1000000000 0.1000000000 0.1000000000 0.1000000000 0.1000000000 0.1000000000 0.1000000000 0.1000000000 0.1000000000 0.1000000000 0.1000000000 0.1000000000 0.1000000000 0.1000000000 0.1000000000 0.1000000000 0.1000000000 0.1000000000 0.1000000000 0.1000000000 0.1000000000 0.1000000000 0.1000000000 0.1000000000 0.1000000000 0.1000000000 0.1000000000 0.1000000000 0.1000000000 0.1000000000 0.1000000000 0.1000000000 0.1000000000 0.1000000000 0.1000000000 0.1000000000 0.1000000000 0.1000000000 0.1000000000 0.1000000000 0.1000000000 0.1000000000 0.1000000000 0.1000000000 0.1000000000 0.1000000000 0.1000000000 0.1000000000 0.1000000000 0.1000000000 0.1000000000 0.1000000000 0.1000000000 0.1000000000 0.1000000000 0.1000000000 0.1000000000 0.1000000000 0.1000000000 0.1000000000 0.1000000000 0.1000000000 0.1000000000 0.1000000000 0.1000000000 0.1000000000 0.1000000000 0.1000000000 0.1000000000 0.1000000000 0.1000000000 0.1000000000 0.1000000000 0.1000000000 0.1000000000 0.1000000000 0.1000000000 0.1000000000 0.1000000000 0.1000000000 0.1000000000 0.1000000000 0.1000000000 0.1000000000 0.1000000000 0.1000000000 0.1000000000 0.1000000000 0.1000000000 0.1000000000 0.1000000000 0.1000000000 0.1000000000 0.1000000000 0.1000000000 0.1000000000 0.1000000000 0.1000000000 0.1000000000 0.1000000000 0.1000000000 0.1000000000 0.1000000000 0.1000000000 0.1000000000 0.1000000000 0.1000000000 0.1000000000 0.1000000000 0.1000000000 0.1000000000 0.1000000000 0.1000000000 0.1000000000 0.1000000000 0.1000000000 0.1000000000 0.1000000000 0.1000000000 0.1000000000 0.1000000000 0.1000000000 0.1000000000 0.1000000000 0.1000000000 0.1000000000 0.1000000000 0.1000000000 0.1000000000 0.1000000000 0.1000000000 0.1000000000 0.1000000000 0.1000000000 0.1000000000 0.1000000000 0.1000000000 0.1000000000 0.1000000000 0.1000000000 0.1000000000 0.1000000000 0.1000000000 0.1000000000 0.1000000000 0.1000000000 0.1000000000 0.1000000000 0.1000000000 0.1000000000 0.1000000000 0.1000000000 0.1000000000 0.1000000000 0.1000000000 0.1000000000 0.1000000000 0.1000000000 0.1000000000 0.1000000000 0.1000000000 0.1000000000 0.1000000000 0.1000000000 0.1000000000 0.1000000000 0.1000000000 0.1000000000 0.1000000000 0.1000000000 0.1000000000 0.1000000000 0.1000000000 0.1000000000 0.1000000000 0.1000000000 0.1000000000 0.1000000000 0.1000000000 0.1000000000 0.1000000000 0.1000000000 0.1000000000 0.1000000000 0.1000000000 0.1000000000 0.1000000000 0.1000000000 0.1000000000 0.1000000000 0.1000000000 0.1000000000 0.1000000000 0.1000000000 0.1000000000 0.1000000000 0.1000000000 0.1000000000 0.1000000000 0.1000000000 0.1000000000 0.1000000000 0.1000000000 0.1000000000 0.1000000000 0.1000000000 0.1000000000 0.1000000000 0.1000000000 0.1000000000 0.1000000000 0.1000000000 0.1000000000 0.1000000000 0.1000000000 0.1000000000 0.1000000000 0.1000000000 0.1000000000 0.1000000000 0.1000000000 0.1000000000 0.1000000000 0.1000000000 0.1000000000 0.1000000000 0.1000000000 0.1000000000 0.1000000000 0.1000000000 0.1000000000 0.1000000000 0.1000000000 0.1000000000 0.1000000000 0.1000000000 0.1000000000 0.1000000000 0.1000000000 0.1000000000 0.1000000000 0.1000000000 0.1000000000 0.1000000000 0.1000000000 0.1000000000 0.1000000000 0.1000000000 0.1000000000 0.1000000000 0.1000000000 0.1000000000 0.1000000000 0.1000000000 0.1000000000 0.1000000000 0.1000000000 0.1000000000 0.1000000000 0.1000000000 0.1000000000 0.1000000000 0.1000000000 0.1000000000 0.1000000000 0.1000000000 0.1000000000 0.1000000000 0.1000000000 0.1000000000 0.1000000000 0.1000000000 0.1000000000 0.1000000000 0.1000000000 0.1000000000 0.1000000000 0.1000000000 0.1000000000 0.1000000000 0.1000000000 0.1000000000 0.1000000000 0.1000000000 0.1000000000 0.1000000000 0.1000000000 0.1000000000 0.1000000000 0.1000000000 0.1000000000 0.1000000000 0.1000000000 0.1000000000 0.1000000000 0.1000000000 0.1000000000 0.1000000000 0.1000000000 0.1000000000 0.1000000000 0.1000000000 0.1000000000 0.1000000000 0.1000000000 0.1000000000 0.1000000000 0.1000000000 0.1000000000 0.1000000000 0.1000000000 0.1000000000 0.1000000000 0.1000000000 0.1000000000 0.1000000000 0.1000000000 0.1000000000 0.1000000000 0.1000000000 0.1000000000 0.1000000000 0.1000000000 0.1000000000 0.1000000000 0.1000000000 0.1000000000 0.1000000000 0.1000000000 0.1000000000 0.1000000000 0.1000000000 0.1000000000 0.1000000000 0.1000000000 0.1000000000 0.1000000000 0.1000000000 0.1000000000 0.1000000000 0.1000000000 0.1000000000 0.1000000000 0.1000000000 0.1000000000 0.1000000000 0.1000000000 0.1000000000 0.1000000000 0.1000000000 0.1000000000 0.1000000000 0.1000000000 0.1000000000 0.1000000000 0.1000000000 0.1000000000 0.1000000000 0.1000000000 0.1000000000 0.1000000000 0.1000000000 0.1000000000 0.1000000000 0.1000000000 0.1000000000 0.1000000000 0.1000000000 0.1000000000 0.1000000000 0.1000000000 0.1000000000 0.1000000000 0.1000000000 0.1000000000 0.1000000000 0.1000000000 0.1000000000 0.1000000000 0.1000000000 0.1000000000 0.1000000000 0.1000000000 0.1000000000 0.1000000000 0.1000000000 0.1000000000 0.1000000000 0.1000000000 0.1000000000 0.1000000000 0.1000000000 0.1000000000 0.1000000000 0.1000000000 0.1000000000 0.1000000000 0.1000000000 0.1000000000 0.1000000000 0.1000000000 0.1000000000 0.1000000000 0.1000000000 0.1000000000 0.1000000000 0.1000000000 0.1000000000 0.1000000000 0.1000000000 0.1000000000 0.1000000000 0.1000000000 0.1000000000 0.1000000000 0.1000000000 0.1000000000 0.1000000000 0.1000000000 0.1000000000 0.1000000000 0.1000000000 0.1000000000 0.1000000000 0.1000000000 0.1000000000 0.1000000000 0.1000000000 0.1000000000 0.1000000000 0.1000000000 0.1000000000 0.1000000000 0.1000000000 0.1000000000 0.1000000000 0.1000000000 0.1000000000 0.1000000000 0.1000000000 0.1000000000 0.1000000000 0.1000000000 0.1000000000 0.1000000000 0.1000000000 0.1000000000 0.1000000000 0.1000000000 0.1000000000 0.1000000000 0.1000000000 0.1000000000 0.1000000000 0.1000000000 0.1000000000 0.1000000000 0.1000000000 0.1000000000 0.1000000000 0.1000000000 0.1000000000 0.1000000000 0.1000000000 0.1000000000 0.1000000000 0.1000000000 0.1000000000 0.1000000000 0.1000000000 0.1000000000 0.1000000000 0.1000000000 0.1000000000 0.1000000000 0.1000000000 0.1000000000 0.1000000000 0.1000000000 0.1000000000 0.1000000000 0.1000000000 0.1000000000 0.1000000000 0.1000000000 0.1000000000 0.1000000000 0.1000000000 0.1000000000 0.1000000000 0.1000000000 0.1000000000 0.1000000000 0.1000000000 0.1000000000 0.1000000000 0.1000000000 0.1000000000 0.1000000000 0.1000000000 0.1000000000 0.1000000000 0.1000000000 0.1000000000 0.1000000000 0.1000000000 0.1000000000 0.1000000000 0.1000000000 0.1000000000 0.1000000000 0.1000000000 0.1000000000 0.1000000000 0.1000000000 0.1000000000 0.1000000000 0.1000000000 0.1000000000 0.1000000000 0.1000000000 0.1000000000 0.1000000000 0.1000000000 0.1000000000 0.1000000000 0.1000000000 0.1000000000 0.1000000000 0.1000000000 0.1000000000 0.1000000000 0.1000000000 0.1000000000 0.1000000000 0.1000000000 0.1000000000 0.1000000000 0.1000000000 0.1000000000 0.1000000000 0.1000000000 0.1000000000 0.1000000000 0.1000000000 0.1000000000 0.1000000000 0.1000000000 0.1000000000 0.1000000000 0.1000000000 0.1000000000 0.1000000000 0.1000000000 0.1000000000 0.1000000000 0.1000000000 0.1000000000 0.1000000000 0.1000000000 0.1000000000 0.1000000000 0.1000000000 0.1000000000 0.1000000000 0.1000000000 0.1000000000 0.1000000000 0.1000000000 0.1000000000 0.1000000000 0.1000000000 0.1000000000 0.1000000000 0.1000000000 0.1000000000 0.1000000000 0.1000000000 0.1000000000 0.1000000000 0.1000000000 0.1000000000 0.1000000000 0.1000000000 0.1000000000 0.1000000000 0.1000000000 0.1000000000 0.1000000000 0.1000000000 0.1000000000 0.1000000000 0.1000000000 0.1000000000 0.1000000000 0.1000000000 0.1000000000 0.1000000000 0.1000000000 0.1000000000 0.1000000000 0.1000000000 0.1000000000 0.1000000000 0.1000000000 0.1000000000 0.1000000000 0.1000000000 0.1000000000 0.1000000000 0.1000000000 0.1000000000 0.1000000000 0.1000000000 0.1000000000 0.1000000000 0.1000000000 0.1000000000 0.1000000000 0.1000000000 0.1000000000 0.1000000000 0.1000000000 0.1000000000 0.1000000000 0.1000000000 0.1000000000 0.1000000000 0.1000000000 0.1000000000 0.1000000000 0.1000000000 0.1000000000 0.1000000000 0.1000000000 0.1000000000 0.1000000000 0.1000000000 0.1000000000 0.1000000000 0.1000000000 0.1000000000 0.1000000000 0.1000000000 0.1000000000 0.1000000000 0.1000000000 0.1000000000 0.1000000000 0.1000000000 0.1000000000 0.1000000000 0.1000000000 0.1000000000 0.1000000000 0.1000000000 0.1000000000 0.1000000000 0.1000000000 0.1000000000 0.1000000000 0.1000000000 0.1000000000 0.1000000000 0.1000000000 0.1000000000 0.1000000000 0.1000000000 0.1000000000 0.1000000000 0.1000000000 0.1000000000 0.1000000000 0.1000000000 0.1000000000 0.1000000000 0.1000000000 0.1000000000 0.1000000000 0.1000000000 0.1000000000 0.1000000000 0.1000000000 0.1000000000 0.1000000000 0.1000000000 0.1000000000 0.1000000000 0.1000000000 0.1000000000 0.1000000000 0.1000000000 0.1000000000 0.1000000000 0.1000000000 0.1000000000 0.1000000000 0.1000000000 0.1000000000 0.1000000000 0.1000000000 0.1000000000 0.1000000000 0.1000000000 0.1000000000 0.1000000000 0.1000000000 0.1000000000 0.1000000000 0.1000000000 0.1000000000 0.1000000000 0.1000000000 0.1000000000 0.1000000000 0.1000000000 0.1000000000 0.1000000000 0.1000000000 0.1000000000 0.1000000000 0.1000000000 0.1000000000 0.1000000000 0.1000000000 0.1000000000 0.1000000000 0.1000000000 0.1000000000 0.1000000000 0.1000000000 0.1000000000 0.1000000000 0.1000000000 0.1000000000 0.1000000000 0.1000000000 0.1000000000 0.1000000000 0.1000000000 0.1000000000 0.1000000000 0.1000000000 0.1000000000 0.1000000000 0.1000000000 0.1000000000 0.1000000000 0.1000000000 0.1000000000 0.1000000000 0.1000000000 0.1000000000 0.1000000000 0.1000000000 0.1000000000 0.1000000000 0.1000000000 0.1000000000 0.1000000000 0.1000000000 0.1000000000 0.1000000000 0.1000000000 0.1000000000 0.1000000000 0.1000000000 0.1000000000 0.1000000000 0.1000000000 0.1000000000 0.1000000000 0.1000000000 0.1000000000 0.1000000000 0.1000000000 0.1000000000 0.1000000000 0.1000000000 0.1000000000 0.1000000000 0.1000000000 0.1000000000 0.1000000000 0.1000000000 0.1000000000 0.1000000000 0.1000000000 0.1000000000 0.1000000000 0.1000000000 0.1000000000 0.1000000000 0.1000000000 0.1000000000 0.1000000000 0.1000000000 0.1000000000 0.1000000000 0.1000000000 0.1000000000 0.1000000000 0.1000000000 0.1000000000 0.1000000000 0.1000000000 0.1000000000 0.1000000000 0.1000000000 0.1000000000 0.1000000000 0.1000000000 0.1000000000 0.1000000000 0.1000000000 0.1000000000 0.1000000000 0.1000000000 0.1000000000 0.1000000000 0.1000000000 0.1000000000 0.1000000000 0.1000000000 0.1000000000 0.1000000000 0.1000000000 0.1000000000 0.1000000000 0.1000000000 0.1000000000 0.1000000000 0.1000000000 0.1000000000 0.1000000000 0.1000000000 0.1000000000 0.1000000000 0.1000000000 0.1000000000 0.1000000000 0.1000000000 0.1000000000 0.1000000000 0.1000000000 0.1000000000 0.1000000000 0.1000000000 0.1000000000 0.1000000000 0.1000000000 0.1000000000 0.1000000000 0.1000000000 0.1000000000 0.1000000000 0.1000000000 0.1000000000 0.1000000000 0.1000000000 0.1000000000 0.1000000000 0.1000000000 0.1000000000 0.1000000000 0.1000000000 0.1000000000 0.1000000000 0.1000000000 0.1000000000 0.1000000000 0.1000000000 0.1000000000 0.1000000000 0.1000000000 0.1000000000 0.1000000000 0.1000000000 0.1000000000 0.1000000000 0.1000000000 0.1000000000 0.1000000000 0.1000000000 0.1000000000 0.1000000000 0.1000000000 0.1000000000 0.1000000000 0.1000000000 0.10000000