<?xml version="1.0"?>
<VTKFile type="UnstructuredGrid" version="0.1" byte_order="LittleEndian">
  <UnstructuredGrid>
    <FieldData>
      <DataArray type="Float32" Name="TIME"  NumberOfTuples="1" format="ascii"> 2.2500000000 </DataArray>
      <DataArray type="Int32"   Name="STEP"  NumberOfTuples="1" format="ascii"> 562500 </DataArray>
    </FieldData>
    <Piece NumberOfPoints="11600" NumberOfCells="11600">
      <Points>
        <DataArray type="Float32" NumberOfComponents="3" format="ascii">
 -0.3853804722 -0.7502475716 -0.0000000626 -0.1854204241 -0.7462502348 -0.0000001867 0.0145396267 -0.7422528981 -0.0000003126 0.2144996751 -0.7382555612 -0.0000004499 0.4144597260 -0.7342582239 -0.0000005809 0.6144197752 -0.7302608870 -0.0000007113 0.8143798244 -0.7262635499 -0.0000008382 1.0143398745 -0.7222662130 -0.0000009592 1.2142999231 -0.7182688758 -0.0000010794 1.4142599733 -0.7142715386 -0.0000011709 1.6142200224 -0.7102742014 -0.0000012510 1.8141800716 -0.7062768645 -0.0000013181 2.0141401215 -0.7022795275 -0.0000013724 2.2141001702 -0.6982821905 -0.0000014167 2.4140602202 -0.6942848532 -0.0000014326 2.6140202694 -0.6902875162 -0.0000014374 2.8139803184 -0.6862901792 -0.0000014319 3.0139403684 -0.6822928424 -0.0000014183 3.2139004170 -0.6782955053 -0.0000013977 3.4138604670 -0.6742981681 -0.0000013710 3.6138205159 -0.6703008312 -0.0000013434 3.8137805650 -0.6663034943 -0.0000013167 4.0137406148 -0.6623061575 -0.0000012921 4.2137006635 -0.6583088206 -0.0000012697 4.4136607132 -0.6543114836 -0.0000012542 4.6136207623 -0.6503141469 -0.0000012407 4.8135808114 -0.6463168101 -0.0000012285 5.0135408613 -0.6423194735 -0.0000012163 5.2135009100 -0.6383221368 -0.0000012012 5.4134609599 -0.6343247999 -0.0000011842 5.6134210090 -0.6303274632 -0.0000011648 5.8133810581 -0.6263301265 -0.0000011430 6.0133411080 -0.6223327901 -0.0000011193 6.2133011569 -0.6183354534 -0.0000010930 6.4132612068 -0.6143381167 -0.0000010682 6.6132212559 -0.6103407801 -0.0000010447 6.8131813051 -0.6063434436 -0.0000010238 7.0131413551 -0.6023461073 -0.0000010059 7.2131014040 -0.5983487707 -0.0000009928 7.4130614541 -0.5943514340 -0.0000009857 7.6130215033 -0.5903540975 -0.0000009815 7.8129815525 -0.5863567611 -0.0000009797 8.0129416025 -0.5823594247 -0.0000009790 8.2129016515 -0.5783620883 -0.0000009786 8.4128617016 -0.5743647516 -0.0000009749 8.6128217508 -0.5703674153 -0.0000009686 8.8127818001 -0.5663700788 -0.0000009591 9.0127418504 -0.5623727425 -0.0000009464 9.2127018994 -0.5583754061 -0.0000009285 9.4126619495 -0.5543780694 -0.0000009084 9.6126219987 -0.5503807330 -0.0000008869 9.8125820481 -0.5463833967 -0.0000008641 10.0125420980 -0.5423860602 -0.0000008403 10.2125021472 -0.5383887239 -0.0000008150 10.4124621971 -0.5343913872 -0.0000007854 10.6124222465 -0.5303940508 -0.0000007528 10.8123822956 -0.5263967142 -0.0000007159 11.0123423459 -0.5223993779 -0.0000006744 11.2123023948 -0.5184020414 -0.0000006270 11.4122624451 -0.5144047047 -0.0000005710 11.6122224942 -0.5104073681 -0.0000005115 11.8121825434 -0.5064100316 -0.0000004495 12.0121425938 -0.5024126953 -0.0000003860 12.2121026425 -0.4984153585 -0.0000003227 12.4120626932 -0.4944180216 -0.0000002579 12.6120227420 -0.4904206853 -0.0000001950 12.8119827921 -0.4864233478 -0.0000001308 13.0119428424 -0.4824260114 -0.0000000668 13.2119028912 -0.4784286747 -0.0000000048 13.4118629435 -0.4744313379 0.0000000587 13.6118229924 -0.4704339990 0.0000001219 13.8474840628 -0.4573616954 0.0000000000 14.0474825837 -0.4581307129 0.0000000000 14.2474811045 -0.4588997301 0.0000000000 14.4474796279 -0.4596687468 0.0000000000 14.6474781489 -0.4604377644 0.0000000000 14.8474766709 -0.4612067812 0.0000000000 15.0474751930 -0.4619757987 0.0000000000 15.2474737141 -0.4627448158 0.0000000000 15.4474722370 -0.4635138330 0.0000000000 15.6474707582 -0.4642828503 0.0000000000 15.8474692805 -0.4650518675 0.0000000000 16.0474678025 -0.4658208843 0.0000000000 16.3203001950 -0.3447992415 0.0000000136 16.5202391784 -0.3398593001 0.0000000131 16.7201781603 -0.3349193595 0.0000000126 16.9201171445 -0.3299794186 0.0000000123 17.1200561274 -0.3250394780 0.0000000119 17.3199951102 -0.3200995373 0.0000000116 17.5199340942 -0.3151595968 0.0000000113 17.7198730767 -0.3102196562 0.0000000110 17.9198120606 -0.3052797154 0.0000000107 18.1197510437 -0.3003397748 0.0000000105 18.3196900266 -0.2953998341 0.0000000103 18.5196290111 -0.2904598935 0.0000000101 18.7195679934 -0.2855199531 0.0000000099 18.9195069780 -0.2805800120 0.0000000097 19.1194459611 -0.2756400712 0.0000000095 19.3193849441 -0.2707001303 0.0000000094 19.5193239266 -0.2657601892 0.0000000092 -0.2888622429 -0.5750784220 -0.0000001211 -0.0889021946 -0.5710810857 -0.0000002431 0.1110578555 -0.5670837485 -0.0000003679 0.3110179057 -0.5630864116 -0.0000004945 0.5109779550 -0.5590890745 -0.0000006194 0.7109380042 -0.5550917373 -0.0000007414 0.9108980534 -0.5510944000 -0.0000008584 1.1108581033 -0.5470970629 -0.0000009678 1.3108181533 -0.5430997260 -0.0000010612 1.5107782024 -0.5391023888 -0.0000011395 1.7107382516 -0.5351050517 -0.0000012050 1.9106983008 -0.5311077144 -0.0000012578 2.1106583505 -0.5271103773 -0.0000012974 2.3106184003 -0.5231130403 -0.0000013176 2.5105784494 -0.5191157033 -0.0000013233 2.7105384986 -0.5151183661 -0.0000013187 2.9104985477 -0.5111210290 -0.0000013056 3.1104585972 -0.5071236920 -0.0000012860 3.3104186469 -0.5031263551 -0.0000012608 3.5103786960 -0.4991290181 -0.0000012337 3.7103387452 -0.4951316811 -0.0000012071 3.9102987944 -0.4911343441 -0.0000011824 4.1102588438 -0.4871370073 -0.0000011606 4.3102188934 -0.4831396706 -0.0000011439 4.5101789425 -0.4791423338 -0.0000011305 4.7101389917 -0.4751449969 -0.0000011188 4.9100990409 -0.4711476601 -0.0000011075 5.1100590904 -0.4671503234 -0.0000010950 5.3100191401 -0.4631529866 -0.0000010797 5.5099791893 -0.4591556501 -0.0000010620 5.7099392385 -0.4551583134 -0.0000010418 5.9098992878 -0.4511609767 -0.0000010194 6.1098593374 -0.4471636400 -0.0000009955 6.3098193870 -0.4431663034 -0.0000009710 6.5097794362 -0.4391689668 -0.0000009476 6.7097394857 -0.4351716304 -0.0000009261 6.9096995349 -0.4311742938 -0.0000009073 7.1096595846 -0.4271769572 -0.0000008923 7.3096196343 -0.4231796206 -0.0000008826 7.5095796836 -0.4191822842 -0.0000008766 7.7095397330 -0.4151849477 -0.0000008732 7.9094997824 -0.4111876112 -0.0000008715 8.1094598321 -0.4071902747 -0.0000008702 8.3094198819 -0.4031929382 -0.0000008677 8.5093799312 -0.3991956018 -0.0000008629 8.7093399807 -0.3951982654 -0.0000008554 8.9093000300 -0.3912009291 -0.0000008448 9.1092600799 -0.3872035926 -0.0000008310 9.3092201297 -0.3832062560 -0.0000008134 9.5091801791 -0.3792089197 -0.0000007937 9.7091402286 -0.3752115832 -0.0000007724 9.9091002779 -0.3712142469 -0.0000007496 10.1090603277 -0.3672169104 -0.0000007249 10.3090203774 -0.3632195737 -0.0000006964 10.5089804268 -0.3592222373 -0.0000006643 10.7089404763 -0.3552249010 -0.0000006280 10.9089005256 -0.3512275645 -0.0000005869 11.1088605754 -0.3472302280 -0.0000005401 11.3088206252 -0.3432328915 -0.0000004858 11.5087806746 -0.3392355549 -0.0000004265 11.7087407240 -0.3352382186 -0.0000003642 11.9087007731 -0.3312408820 -0.0000002999 12.1086608231 -0.3272435452 -0.0000002348 12.3086208729 -0.3232462090 -0.0000001691 12.5085809225 -0.3192488721 -0.0000001036 12.7085409724 -0.3152515356 -0.0000000383 12.9085010216 -0.3112541992 0.0000000267 13.1084610720 -0.3072568619 0.0000000910 13.3084211220 -0.3032595262 0.0000001550 13.5083811718 -0.2992621884 0.0000002187 13.7481507881 -0.2837733895 0.0000000000 13.9481493110 -0.2845424050 0.0000000000 14.1481478328 -0.2853114220 0.0000000000 14.3481463547 -0.2860804396 0.0000000000 14.5481448765 -0.2868494567 0.0000000000 14.7481433984 -0.2876184740 0.0000000000 14.9481419200 -0.2883874913 0.0000000000 15.1481404417 -0.2891565083 0.0000000000 15.3481389640 -0.2899255260 0.0000000000 15.5481374857 -0.2906945427 0.0000000000 15.7481360078 -0.2914635597 0.0000000000 15.9481345270 -0.2922325791 0.0000000000 16.2160525899 -0.1741169749 0.0000000134 16.4159915715 -0.1691770335 0.0000000129 16.6159305549 -0.1642370921 0.0000000126 16.8158695386 -0.1592971514 0.0000000121 17.0158085216 -0.1543572106 0.0000000117 17.2157475048 -0.1494172700 0.0000000114 17.4156864878 -0.1444773295 0.0000000110 17.6156254714 -0.1395373886 0.0000000107 17.8155644549 -0.1345974480 0.0000000104 18.0155034381 -0.1296575074 0.0000000102 18.2154424212 -0.1247175669 0.0000000099 18.4153814045 -0.1197776266 0.0000000097 18.6153203883 -0.1148376856 0.0000000095 18.8152593721 -0.1098977451 0.0000000093 19.0151983552 -0.1049578043 0.0000000091 19.2151373384 -0.1000178634 0.0000000090 19.4150763215 -0.0950779226 0.0000000088 19.6150153035 -0.0901379817 0.0000000086 -0.3923040631 -0.4039066085 -0.0000000606 -0.1923440142 -0.3999092717 -0.0000001781 0.0076160361 -0.3959119349 -0.0000002963 0.2075760845 -0.3919145978 -0.0000004158 0.4075361349 -0.3879172607 -0.0000005347 0.6074961841 -0.3839199236 -0.0000006510 0.8074562336 -0.3799225865 -0.0000007625 1.0074162835 -0.3759252494 -0.0000008669 1.2073763323 -0.3719279120 -0.0000009584 1.4073363822 -0.3679305751 -0.0000010340 1.6072964316 -0.3639332379 -0.0000010969 1.8072564808 -0.3599359008 -0.0000011469 2.0072165306 -0.3559385637 -0.0000011844 2.2071765793 -0.3519412264 -0.0000012056 2.4071366292 -0.3479438896 -0.0000012112 2.6070966785 -0.3439465525 -0.0000012066 2.8070567277 -0.3399492154 -0.0000011936 3.0070167773 -0.3359518784 -0.0000011744 3.2069768262 -0.3319545412 -0.0000011500 3.4069368760 -0.3279572044 -0.0000011232 3.6068969253 -0.3239598674 -0.0000010968 3.8068569745 -0.3199625304 -0.0000010722 4.0068170241 -0.3159651935 -0.0000010504 4.2067770730 -0.3119678565 -0.0000010330 4.4067371226 -0.3079705198 -0.0000010198 4.6066971719 -0.3039731831 -0.0000010086 4.8066572212 -0.2999758463 -0.0000009983 5.0066172709 -0.2959785095 -0.0000009876 5.2065773197 -0.2919811728 -0.0000009745 5.4065373695 -0.2879838361 -0.0000009585 5.6064974188 -0.2839864994 -0.0
[...]
      <PointData Scalars="radius">
        <DataArray type="Float32" Name="radius" format="ascii">
 0.1000000000 0.1000000000 0.1000000000 0.1000000000 0.1000000000 0.1000000000 0.1000000000 0.1000000000 0.1000000000 0.1000000000 0.1000000000 0.1000000000 0.1000000000 0.1000000000 0.1000000000 0.1000000000 0.1000000000 0.1000000000 0.1000000000 0.1000000000 0.1000000000 0.1000000000 0.1000000000 0.1000000000 0.1000000000 0.1000000000 0.1000000000 0.1000000000 0.1000000000 0.1000000000 0.1000000000 0.1000000000 0.1000000000 0.1000000000 0.1000000000 0.1000000000 0.1000000000 0.1000000000 0.1000000000 0.1000000000 0.1000000000 0.1000000000 0.1000000000 0.1000000000 0.1000000000 0.1000000000 0.1000000000 0.1000000000 0.1000000000 0.1000000000 0.1000000000 0.1000000000 0.1000000000 0.1000000000 0.1000000000 0.1000000000 0.1000000000 0.1000000000 0.1000000000 0.1000000000 0.1000000000 0.1000000000 0.1000000000 0.1000000000 0.1000000000 0.1000000000 0.1000000000 0.1000000000 0.1000000000 0.1000000000 0.1000000000 0.1000000000 0.1000000000 0.1000000000 0.1000000000 0.1000000000 0.1000000000 0.1000000000 0.1000000000 0.1000000000 0.1000000000 0.1000000000 0.1000000000 0.1000000000 0.1000000000 0.1000000000 0.1000000000 0.1000000000 0.1000000000 0.1000000000 0.1000000000 0.1000000000 0.1000000000 0.1000000000 0.1000000000 0.1000000000 0.1000000000 0.1000000000 0.1000000000 0.1000000000 0.1000000000 0.1000000000 0.1000000000 0.1000000000 0.1000000000 0.1000000000 0.1000000000 0.1000000000 0.1000000000 0.1000000000 0.1000000000 0.1000000000 0.1000000000 0.1000000000 0.1000000000 0.1000000000 0.1000000000 0.1000000000 0.1000000000 0.1000000000 0.1000000000 0.1000000000 0.1000000000 0.1000000000 0.1000000000 0.1000000000 0.1000000000 0.1000000000 0.1000000000 0.1000000000 0.1000000000 0.1000000000 0.1000000000 0.1000000000 0.1000000000 0.1000000000 0.1000000000 0.1000000000 0.1000000000 0.1000000000 0.1000000000 0.1000000000 0.1000000000 0.1000000000 0.1000000000 0.1000000000 0.1000000000 0.1000000000 0.1000000000 0.1000000000 0.1000000000 0.1000000000 0.1000000000 0.1000000000 0.1000000000 0.1000000000 0.1000000000 0.1000000000 0.1000000000 0.1000000000 0.1000000000 0.1000000000 0.1000000000 0.1000000000 0.1000000000 0.1000000000 0.1000000000 0.1000000000 0.1000000000 0.1000000000 0.1000000000 0.1000000000 0.1000000000 0.1000000000 0.1000000000 0.1000000000 0.1000000000 0.1000000000 0.1000000000 0.1000000000 0.1000000000 0.1000000000 0.1000000000 0.1000000000 0.1000000000 0.1000000000 0.1000000000 0.1000000000 0.1000000000 0.1000000000 0.1000000000 0.1000000000 0.1000000000 0.1000000000 0.1000000000 0.1000000000 0.1000000000 0.1000000000 0.1000000000 0.1000000000 0.1000000000 0.1000000000 0.1000000000 0.1000000000 0.1000000000 0.1000000000 0.1000000000 0.1000000000 0.1000000000 0.1000000000 0.1000000000 0.1000000000 0.1000000000 0.1000000000 0.1000000000 0.1000000000 0.1000000000 0.1000000000 0.1000000000 0.1000000000 0.1000000000 0.1000000000 0.1000000000 0.1000000000 0.1000000000 0.1000000000 0.1000000000 0.1000000000 0.1000000000 0.1000000000 0.1000000000 0.1000000000 0.1000000000 0.1000000000 0.1000000000 0.1000000000 0.1000000000 0.1000000000 0.1000000000 0.1000000000 0.1000000000 0.1000000000 0.1000000000 0.1000000000 0.1000000000 0.1000000000 0.1000000000 0.1000000000 0.1000000000 0.1000000000 0.1000000000 0.1000000000 0.1000000000 0.1000000000 0.1000000000 0.1000000000 0.1000000000 0.1000000000 0.1000000000 0.1000000000 0.1000000000 0.1000000000 0.1000000000 0.1000000000 0.1000000000 0.1000000000 0.1000000000 0.1000000000 0.1000000000 0.1000000000 0.1000000000 0.1000000000 0.1000000000 0.1000000000 0.1000000000 0.1000000000 0.1000000000 0.1000000000 0.1000000000 0.1000000000 0.1000000000 0.1000000000 0.1000000000 0.1000000000 0.1000000000 0.1000000000 0.1000000000 0.1000000000 0.1000000000 0.1000000000 0.1000000000 0.1000000000 0.1000000000 0.1000000000 0.1000000000 0.1000000000 0.1000000000 0.1000000000 0.1000000000 0.1000000000 0.1000000000 0.1000000000 0.1000000000 0.1000000000 0.1000000000 0.1000000000 0.1000000000 0.1000000000 0.1000000000 0.1000000000 0.1000000000 0.1000000000 0.1000000000 0.1000000000 0.1000000000 0.1000000000 0.1000000000 0.1000000000 0.1000000000 0.1000000000 0.1000000000 0.1000000000 0.1000000000 0.1000000000 0.1000000000 0.1000000000 0.1000000000 0.1000000000 0.1000000000 0.1000000000 0.1000000000 0.1000000000 0.1000000000 0.1000000000 0.1000000000 0.1000000000 0.1000000000 0.1000000000 0.1000000000 0.1000000000 0.1000000000 0.1000000000 0.1000000000 0.1000000000 0.1000000000 0.1000000000 0.1000000000 0.1000000000 0.1000000000 0.1000000000 0.1000000000 0.1000000000 0.1000000000 0.1000000000 0.1000000000 0.1000000000 0.1000000000 0.1000000000 0.1000000000 0.1000000000 0.1000000000 0.1000000000 0.1000000000 0.1000000000 0.1000000000 0.1000000000 0.1000000000 0.1000000000 0.1000000000 0.1000000000 0.1000000000 0.1000000000 0.1000000000 0.1000000000 0.1000000000 0.1000000000 0.1000000000 0.1000000000 0.1000000000 0.1000000000 0.1000000000 0.1000000000 0.1000000000 0.1000000000 0.1000000000 0.1000000000 0.1000000000 0.1000000000 0.1000000000 0.1000000000 0.1000000000 0.1000000000 0.1000000000 0.1000000000 0.1000000000 0.1000000000 0.1000000000 0.1000000000 0.1000000000 0.1000000000 0.1000000000 0.1000000000 0.1000000000 0.1000000000 0.1000000000 0.1000000000 0.1000000000 0.1000000000 0.1000000000 0.1000000000 0.1000000000 0.1000000000 0.1000000000 0.1000000000 0.1000000000 0.1000000000 0.1000000000 0.1000000000 0.1000000000 0.1000000000 0.1000000000 0.1000000000 0.1000000000 0.1000000000 0.1000000000 0.1000000000 0.1000000000 0.1000000000 0.1000000000 0.1000000000 0.1000000000 0.1000000000 0.1000000000 0.1000000000 0.1000000000 0.1000000000 0.1000000000 0.1000000000 0.1000000000 0.1000000000 0.1000000000 0.1000000000 0.1000000000 0.1000000000 0.1000000000 0.1000000000 0.1000000000 0.1000000000 0.1000000000 0.1000000000 0.1000000000 0.1000000000 0.1000000000 0.1000000000 0.1000000000 0.1000000000 0.1000000000 0.1000000000 0.1000000000 0.1000000000 0.1000000000 0.1000000000 0.1000000000 0.1000000000 0.1000000000 0.1000000000 0.1000000000 0.1000000000 0.1000000000 0.1000000000 0.1000000000 0.1000000000 0.1000000000 0.1000000000 0.1000000000 0.1000000000 0.1000000000 0.1000000000 0.1000000000 0.1000000000 0.1000000000 0.1000000000 0.1000000000 0.1000000000 0.1000000000 0.1000000000 0.1000000000 0.1000000000 0.1000000000 0.1000000000 0.1000000000 0.1000000000 0.1000000000 0.1000000000 0.1000000000 0.1000000000 0.1000000000 0.1000000000 0.1000000000 0.1000000000 0.1000000000 0.1000000000 0.1000000000 0.1000000000 0.1000000000 0.1000000000 0.1000000000 0.1000000000 0.1000000000 0.1000000000 0.1000000000 0.1000000000 0.1000000000 0.1000000000 0.1000000000 0.1000000000 0.1000000000 0.1000000000 0.1000000000 0.1000000000 0.1000000000 0.1000000000 0.1000000000 0.1000000000 0.1000000000 0.1000000000 0.1000000000 0.1000000000 0.1000000000 0.1000000000 0.1000000000 0.1000000000 0.1000000000 0.1000000000 0.1000000000 0.1000000000 0.1000000000 0.1000000000 0.1000000000 0.1000000000 0.1000000000 0.1000000000 0.1000000000 0.1000000000 0.1000000000 0.1000000000 0.1000000000 0.1000000000 0.1000000000 0.1000000000 0.1000000000 0.1000000000 0.1000000000 0.1000000000 0.1000000000 0.1000000000 0.1000000000 0.1000000000 0.1000000000 0.1000000000 0.1000000000 0.1000000000 0.1000000000 0.1000000000 0.1000000000 0.1000000000 0.1000000000 0.1000000000 0.1000000000 0.1000000000 0.1000000000 0.1000000000 0.1000000000 0.1000000000 0.1000000000 0.1000000000 0.1000000000 0.1000000000 0.1000000000 0.1000000000 0.1000000000 0.1000000000 0.1000000000 0.1000000000 0.1000000000 0.1000000000 0.1000000000 0.1000000000 0.1000000000 0.1000000000 0.1000000000 0.1000000000 0.1000000000 0.1000000000 0.1000000000 0.1000000000 0.1000000000 0.1000000000 0.1000000000 0.1000000000 0.1000000000 0.1000000000 0.1000000000 0.1000000000 0.1000000000 0.1000000000 0.1000000000 0.1000000000 0.1000000000 0.1000000000 0.1000000000 0.1000000000 0.1000000000 0.1000000000 0.1000000000 0.1000000000 0.1000000000 0.1000000000 0.1000000000 0.1000000000 0.1000000000 0.1000000000 0.1000000000 0.1000000000 0.1000000000 0.1000000000 0.1000000000 0.1000000000 0.1000000000 0.1000000000 0.1000000000 0.1000000000 0.1000000000 0.1000000000 0.1000000000 0.1000000000 0.1000000000 0.1000000000 0.1000000000 0.1000000000 0.1000000000 0.1000000000 0.1000000000 0.1000000000 0.1000000000 0.1000000000 0.1000000000 0.1000000000 0.1000000000 0.1000000000 0.1000000000 0.1000000000 0.1000000000 0.1000000000 0.1000000000 0.1000000000 0.1000000000 0.1000000000 0.1000000000 0.1000000000 0.1000000000 0.1000000000 0.1000000000 0.1000000000 0.1000000000 0.1000000000 0.1000000000 0.1000000000 0.1000000000 0.1000000000 0.1000000000 0.1000000000 0.1000000000 0.1000000000 0.1000000000 0.1000000000 0.1000000000 0.1000000000 0.1000000000 0.1000000000 0.1000000000 0.1000000000 0.1000000000 0.1000000000 0.1000000000 0.1000000000 0.1000000000 0.1000000000 0.1000000000 0.1000000000 0.1000000000 0.1000000000 0.1000000000 0.1000000000 0.1000000000 0.1000000000 0.1000000000 0.1000000000 0.1000000000 0.1000000000 0.1000000000 0.1000000000 0.1000000000 0.1000000000 0.1000000000 0.1000000000 0.1000000000 0.1000000000 0.1000000000 0.1000000000 0.1000000000 0.1000000000 0.1000000000 0.1000000000 0.1000000000 0.1000000000 0.1000000000 0.1000000000 0.1000000000 0.1000000000 0.1000000000 0.1000000000 0.1000000000 0.1000000000 0.1000000000 0.1000000000 0.1000000000 0.1000000000 0.1000000000 0.1000000000 0.1000000000 0.1000000000 0.1000000000 0.1000000000 0.1000000000 0.1000000000 0.1000000000 0.1000000000 0.1000000000 0.1000000000 0.1000000000 0.1000000000 0.1000000000 0.1000000000 0.1000000000 0.1000000000 0.1000000000 0.1000000000 0.1000000000 0.1000000000 0.1000000000 0.1000000000 0.1000000000 0.1000000000 0.1000000000 0.1000000000 0.1000000000 0.1000000000 0.1000000000 0.1000000000 0.1000000000 0.1000000000 0.1000000000 0.1000000000 0.1000000000 0.1000000000 0.1000000000 0.1000000000 0.1000000000 0.1000000000 0.1000000000 0.1000000000 0.1000000000 0.1000000000 0.1000000000 0.1000000000 0.1000000000 0.1000000000 0.1000000000 0.1000000000 0.1000000000 0.1000000000 0.1000000000 0.1000000000 0.1000000000 0.1000000000 0.1000000000 0.1000000000 0.1000000000 0.1000000000 0.1000000000 0.1000000000 0.1000000000 0.1000000000 0.1000000000 0.1000000000 0.1000000000 0.1000000000 0.1000000000 0.1000000000 0.1000000000 0.1000000000 0.1000000000 0.1000000000 0.1000000000 0.1000000000 0.1000000000 0.1000000000 0.1000000000 0.1000000000 0.1000000000 0.1000000000 0.1000000000 0.1000000000 0.1000000000 0.1000000000 0.1000000000 0.1000000000 0.1000000000 0.1000000000 0.1000000000 0.1000000000 0.1000000000 0.1000000000 0.1000000000 0.1000000000 0.1000000000 0.1000000000 0.1000000000 0.1000000000 0.1000000000 0.1000000000 0.1000000000 0.1000000000 0.1000000000 0.1000000000 0.1000000000 0.1000000000 0.1000000000 0.1000000000 0.1000000000 0.1000000000 0.1000000000 0.1000000000 0.1000000000 0.1000000000 0.1000000000 0.1000000000 0.1000000000 0.1000000000 0.1000000000 0.1000000000 0.1000000000 0.1000000000 0.1000000000 0.1000000000 0.1000000000 0.1000000000 0.1000000000 0.1000000000 0.1000000000 0.1000000000 0.1000000000 0.1000000000 0.1000000000 0.1000000000 0.1000000000 0.1000000000 0.1000000000 0.1000000000 0.1000000000 0.1000000000 0.1000000000 0.1000000000 0.1000000000 0.1000000000 0.1000000000 0.1000000000 0.1000000000 0.1000000000 0.1000000000 0.1000000000 0.1000000000 0.1000000000 0.1000000000 0.1000000000 0.1000000000 0.1000000000 0.1000000000 0.1000000000 0.1000000000 0.1000000000 0.1000000000 0.1000000000 0.1000000000 0.1000000000 0.1000000000 0.1000000000 0.1000000000 0.1000000000 0.1000000000 0.1000000000 0.1000000000 0.1000000000 0.1000000000 0.1000000000 0.1000000000 0.1000000000 0.1000000000 0.1000000000 0.1000000000 0.1000000000 0.1000000000 0.1000000000 0.1000000000 0.1000000000 0.1000000000 0.1000000000 0.1000000000 0.1000000000 0.1000000000 0.1000000000 0.1000000000 0.1000000000 0.1000000000 0.1000000000 0.1000000000 0.1000000000 0.1000000000 0.1000000000 0.1000000000 0.1000000000 0.1000000000 0.1000000000 0.1000000000 0.1000000000 0.1000000000 0.1000000000 0.1000000000 0.1000000000 0.1000000000 0.1000000000 0.1000000000 0.1000000000 0.1000000000 0.1000000000 0.1000000000 0.1000000000 0.1000000000 0.1000000000 0.1000000000 0.1000000000 0.1000000000 0.1000000000 0.1000000000 0.1000000000 0.1000000000 0.1000000000 0.1000000000 0.1000000000 0.1000000000 0.1000000000 0.1000000000 0.1000000000 0.1000000000 0.1000000000 0.1000000000 0.1000000000 0.1000000000 0.1000000000 0.1000000000 0.1000000000 0.1000000000 0.1000000000 0.1000000000 0.1000000000 0.1000000000 0.1000000000 0.1000000000 0.1000000000 0.1000000000 0.1000000000 0.1000000000 0.1000000000 0.1000000000 0.1000000000 0.1000000000 0.1000000000 0.1000000000 0.1000000000 0.1000000000 0.1000000000 0.1000000000 0.1000000000 0.1000000000 0.1000000000 0.1000000000 0.1000000000 0.1000000000 0.1000000000 0.1000000000 0.1000000000 0.1000000000 0.1000000000 0.1000000000 0.1000000000 0.1000000000 0.1000000000 0.1000000000 0.1000000000 0.1000000000 0.1000000000 0.1000000000 0.1000000000 0.1000000000 0.1000000000 0.1000000000 0.1000000000 0.1000000000 0.1000000000 0.1000000000 0.1000000000 0.1000000000 0.1000000000 0.1000000000 0.1000000000 0.1000000000 0.1000000000 0.1000000000 0.1000000000 0.1000000000 0.1000000000 0.1000000000 0.1000000000 0.1000000000 0.1000000000 0.1000000000 0.1000000000 0.1000000000 0.1000000000 0.1000000000 0.1000000000 0.1000000000 0.1000000000 0.1000000000 0.1000000000 0.1000000000 0.1000000000 0.1000000000 0.1000000000 0.1000000000 0.1000000000 0.1000000000 0.1000000000 0.1000000000 0.1000000000 0.1000000000 0.1000000000 0.1000000000 0.1000000000 0.1000000000 0.1000000000 0.1000000000 0.1000000000 0.1000000000 0.1000000000 0.1000000000 0.1000000000 0.1000000000 0.1000000000 0.1000000000 0.1000000000 0.1000000000 0.1000000000 0.1000000000 0.1000000000 0.1000000000 0.1000000000 0.1000000000 0.1000000000 0.1000000000 0.1000000000 0.1000000000 0.1000000000 0.1000000000 0.1000000000 0.1000000000 0.1000000000 0.1000000000 0.1000000000 0.1000000000 0.1000000000 0.1000000000 0.1000000000 0.1000000000 0.1000000000 0.1000000000 0.1000000000 0.1000000000 0.1000000000 0.1000000000 0.1000000000 0.1000000000 0.1000000000 0.1000000000 0.1000000000 0.1000000000 0.1000000000 0.1000000000 0.1000000000 0.1000000000 0.1000000000 0.1000000000 0.1000000000 0.1000000000 0.1000000000 0.1000000000 0.1000000000 0.1000000000 0.1000000000 0.1000000000 0.1000000000 0.1000000000 0.1000000000 0.1000000000 0.1000000000 0.1000000000 0.1000000000 0.1000000000 0.1000000000 0.1000000000 0.1000000000 0.1000000000 0.1000000000 0.1000000000 0.1000000000 0.1000000000 0.1000000000 0.1000000000 0.1000000000 0.1000000000 0.1000000000 0.1000000000 0.1000000000 0.1000000000 0.1000000000 0.1000000000 0.1000000000 0.1000000000 0.1000000000 0.1000000000 0.1000000000 0.1000000000 0.1000000000 0.1000000000 0.1000000000 0.1000000000 0.1000000000 0.1000000000 0.1000000000 0.1000000000 0.1000000000 0.1000000000 0.1000000000 0.1000000000 0.1000000000 0.1000000000 0.1000000000 0.1000000000 0.1000000000 0.1000000000 0.1000000000 0.1000000000 0.1000000000 0.1000000000 0.1000000000 0.1000000000 0.1000000000 0.1000000000 0.1000000000 0.1000000000 0.1000000000 0.1000000000 0.1000000000 0.1000000000 0.1000000000 0.1000000000 0.1000000000 0.1000000000 0.1000000000 0.1000000000 0.1000000000 0.1000000000 0.1000000000 0.1000000000 0.1000000000 0.1000000000 0.1000000000 0.1000000000 0.1000000000 0.1000000000 0.1000000000 0.1000000000 0.1000000000 0.1000000000 0.1000000000 0.1000000000 0.1000000000 0.1000000000 0.1000000000 0.1000000000 0.1000000000 0.1000000000 0.1000000000 0.1000000000 0.1000000000 0.1000000000 0.1000000000 0.1000000000 0.1000000000 0.1000000000 0.1000000000 0.1000000000 0.1000000000 0.1000000000 0.1000000000 0.1000000000 0.1000000000 0.1000000000 0.1000000000 0.1000000000 0.1000000000 0.1000000000 0.1000000000 0.1000000000 0.1000000000 0.1000000000 0.1000000000 0.1000000000 0.1000000000 0.1000000000 0.1000000000 0.1000000000 0.1000000000 0.1000000000 0.1000000000 0.1000000000 0.1000000000 0.1000000000 0.1000000000 0.1000000000 0.1000000000 0.1000000000 0.1000000000 0.1000000000 0.1000000000 0.1000000000 0.1000000000 0.1000000000 0.1000000000 0.1000000000 0.1000000000 0.1000000000 0.1000000000 0.1000000000 0.1000000000 0.1000000000 0.1000000000 0.1000000000 0.1000000000 0.1000000000 0.1000000000 0.1000000000 0.1000000000 0.1000000000 0.1000000000 0.1000000000 0.1000000000 0.1000000000 0.1000000000 0.1000000000 0.1000000000 0.1000000000 0.1000000000 0.1000000000 0.1000000000 0.1000000000 0.1000000000 0.1000000000 0.1000000000 0.1000000000 0.1000000000 0.1000000000 0.1000000000 0.1000000000 0.1000000000 0.1000000000 0.1000000000 0.1000000000 0.1000000000 0.1000000000 0.1000000000 0.1000000000 0.1000000000 0.1000000000 0.1000000000 0.1000000000 0.1000000000 0.1000000000 0.1000000000 0.1000000000 0.1000000000 0.1000000000 0.1000000000 0.1000000000 0.1000000000 0.1000000000 0.1000000000 0.1000000000 0.1000000000 0.1000000000 0.1000000000 0.1000000000 0.1000000000 0.1000000000 0.1000000000 0.1000000000 0.1000000000 0.1000000000 0.1000000000 0.1000000000 0.1000000000 0.1000000000 0.1000000000 0.1000000000 0.1000000000 0.1000000000 0.1000000000 0.1000000000 0.1000000000 0.1000000000 0.1000000000 0.1000000000 0.1000000000 0.1000000000 0.1000000000 0.1000000000 0.1000000000 0.1000000000 0.1000000000 0.1000000000 0.1000000000 0.1000000000 0.1000000000 0.1000000000 0.1000000000 0.1000000000 0.1000000000 0.1000000000 0.1000000000 0.1000000000 0.1000000000 0.1000000000 0.1000000000 0.1000000000 0.1000000000 0.1000000000 0.1000000000 0.1000000000 0.1000000000 0.1000000000 0.1000000000 0.1000000000 0.1000000000 0.1000000000 0.1000000000 0.1000000000 0.1000000000 0.1000000000 0.1000000000 0.1000000000 0.1000000000 0.1000000000 0.1000000000 0.1000000000 0.1000000000 0.1000000000 0.1000000000 0.1000000000 0.1000000000 0.1000000000 0.1000000000 0.1000000000 0.1000000000 0.1000000000 0.1000000000 0.1000000000 0.1000000000 0.1000000000 0.1000000000 0.1000000000 0.1000000000 0.1000000000 0.1000000000 0.1000000000 0.1000000000 0.1000000000 0.1000000000 0.1000000000 0.1000000000 0.1000000000 0.1000000000 0.1000000000 0.1000000000 0.1000000000 0.1000000000 0.1000000000 0.1000000000 0.1000000000 0.1000000000 0.1000000000 0.1000000000 0.1000000000 0.1000000000 0.1000000000 0.1000000000 0.1000000000 0.1000000000 0.1000000000 0.1000000000 0.1000000000 0.1000000000 0.1000000000 0.1000000000 0.1000000000 0.1000000000 0.1000000000 0.1000000000 0.1000000000 0.1000000000 0.1000000000 0.1000000000 0.1000000000 0.1000000000 0.1000000000 0.1000000000 0.1000000000 0.1000000000 0.1000000000 0.1000000000 0.1000000000 0.1000000000 0.1000000000 0.1000000000 0.1000000000 0.1000000000 0.1000000000 0.1000000000 0.1000000000 0.1000000000 0.1000000000 0.1000000000 0.1000000000 0.1000000000 0.1000000000 0.1000000000 0.1000000000 0.1000000000 0.1000000000 0.1000000000 0.1000000000 0.1000000000 0.1000000000 0.1000000000 0.1000000000 0.1000000000 0.1000000000 0.1000000000 0.1000000000 0.1000000000 0.1000000000 0.1000000000 0.1000000000 0.1000000000 0.1000000000 0.1000000000 0.1000000000 0.1000000000 0.1000000000 0.1000000000 0.1000000000 0.1000000000 0.1000000000 0.1000000000 0.1000000000 0.1000000000 0.1000000000 0.1000000000 0.1000000000 0.1000000000 0.1000000000 0.1000000000 0.1000000000 0.1000000000 0.1000000000 0.1000000000 0.1000000000 0.1000000000 0.1000000000 0.1000000000 0.1000000000 0.1000000000 0.1000000000 0.1000000000 0.1000000000 0.1000000000 0.1000000000 0.1000000000 0.1000000000 0.1000000000 0.1000000000 0.1000000000 0.1000000000 0.1000000000 0.1000000000 0.1000000000 0.1000000000 0.1000000000 0.1000000000 0.1000000000 0.10000000