<?xml version="1.0"?>
<VTKFile type="UnstructuredGrid" version="0.1" byte_order="LittleEndian">
  <UnstructuredGrid>
    <FieldData>
      <DataArray type="Float32" Name="TIME"  NumberOfTuples="1" format="ascii"> 2.7000000000 </DataArray>
      <DataArray type="Int32"   Name="STEP"  NumberOfTuples="1" format="ascii"> 675000 </DataArray>
    </FieldData>
    <Piece NumberOfPoints="11600" NumberOfCells="11600">
      <Points>
        <DataArray type="Float32" NumberOfComponents="3" format="ascii">
 -0.4774280798 -0.8763347484 0.0000007894 -0.2774806621 -0.8717487689 0.0000007998 -0.0775332397 -0.8671627884 0.0000008089 0.1224142141 -0.8625767948 0.0000008112 0.3223616386 -0.8579907903 0.0000008162 0.5223090615 -0.8534047848 0.0000008210 0.7222564837 -0.8488187777 0.0000008260 0.9222039056 -0.8442327691 0.0000008318 1.1221513407 -0.8396467542 0.0000008316 1.3220987588 -0.8350607399 0.0000008398 1.5220461758 -0.8304747275 0.0000008484 1.7219935926 -0.8258887165 0.0000008563 1.9219410106 -0.8213027064 0.0000008634 2.1218884346 -0.8167166963 0.0000008630 2.3218358516 -0.8121306877 0.0000008684 2.5217832680 -0.8075446822 0.0000008746 2.7217306836 -0.8029586758 0.0000008828 2.9216780992 -0.7983726654 0.0000008936 3.1216255134 -0.7937866498 0.0000009075 3.3215729260 -0.7892006356 0.0000009301 3.5215203387 -0.7846146232 0.0000009574 3.7214677517 -0.7800286128 0.0000009899 3.9214151655 -0.7754426032 0.0000010269 4.1213625766 -0.7708565935 0.0000010729 4.3213099894 -0.7662705821 0.0000011176 4.5212574015 -0.7616845710 0.0000011617 4.7212048134 -0.7570985603 0.0000012033 4.9211522258 -0.7525125520 0.0000012403 5.1210996374 -0.7479265474 0.0000012725 5.3210470510 -0.7433405420 0.0000012849 5.5209944634 -0.7387545351 0.0000012874 5.7209418737 -0.7341685244 0.0000012788 5.9208892841 -0.7295825134 0.0000012596 6.1208366937 -0.7249965074 0.0000012286 6.3207841067 -0.7204105048 0.0000011797 6.5207315222 -0.7158244973 0.0000011233 6.7206789389 -0.7112384849 0.0000010610 6.9206263558 -0.7066524695 0.0000009949 7.1205737724 -0.7020664487 0.0000009281 7.3205211857 -0.6974804259 0.0000008606 7.5204685969 -0.6928944070 0.0000007960 7.7204160079 -0.6883083935 0.0000007360 7.9203634204 -0.6837223827 0.0000006815 8.1203108318 -0.6791363720 0.0000006374 8.3202582452 -0.6745503620 0.0000006054 8.5202056579 -0.6699643533 0.0000005807 8.7201530703 -0.6653783446 0.0000005628 8.9201004829 -0.6607923353 0.0000005503 9.1200478911 -0.6562063238 0.0000005399 9.3199953012 -0.6516203103 0.0000005365 9.5199427092 -0.6470342988 0.0000005341 9.7198901163 -0.6424482905 0.0000005321 9.9198375235 -0.6378622853 0.0000005306 10.1197849244 -0.6332762835 0.0000005275 10.3197323323 -0.6286902820 0.0000005344 10.5196797394 -0.6241042814 0.0000005467 10.7196271461 -0.6195182826 0.0000005668 10.9195745532 -0.6149322857 0.0000005966 11.1195219527 -0.6103462945 0.0000006403 11.3194693614 -0.6057603068 0.0000007078 11.5194167718 -0.6011743240 0.0000007875 11.7193641861 -0.5965883456 0.0000008791 11.9193116059 -0.5920023644 0.0000009808 12.1192590770 -0.5874163621 0.0000010940 12.3192065008 -0.5828303440 0.0000012142 12.5191539618 -0.5782443195 0.0000013403 12.7191013862 -0.5736582835 0.0000014659 12.9190488104 -0.5690722455 0.0000015909 13.1189962549 -0.5644861994 0.0000017146 13.3189436749 -0.5599001437 0.0000018374 13.5188911147 -0.5553140690 0.0000019595 13.7640467143 -0.5390651067 -0.0000000000 13.9640448111 -0.5399374653 -0.0000000000 14.1640429078 -0.5408098236 -0.0000000000 14.3640410073 -0.5416821813 -0.0000000000 14.5640391042 -0.5425545400 -0.0000000000 14.7640372021 -0.5434268979 -0.0000000000 14.9640353001 -0.5442992565 -0.0000000000 15.1640333971 -0.5451716147 -0.0000000000 15.3640314960 -0.5460439730 0.0000000000 15.5640295931 -0.5469163314 0.0000000000 15.7640276914 -0.5477886896 0.0000000000 15.9640257893 -0.5486610475 0.0000000000 16.2505491777 -0.4063667699 0.0000002279 16.4504643353 -0.4005418520 0.0000002325 16.6503794907 -0.3947169367 0.0000002185 16.8502946505 -0.3888920285 0.0000002048 17.0502098108 -0.3830671240 0.0000001886 17.2501249712 -0.3772422217 0.0000001705 17.4500401331 -0.3714173214 0.0000001531 17.6499553070 -0.3655924127 0.0000001393 17.8498704716 -0.3597675019 0.0000001265 18.0497856344 -0.3539425927 0.0000001102 18.2497007962 -0.3481176872 0.0000000887 18.4496159583 -0.3422927880 0.0000000637 18.6495311447 -0.3364678866 0.0000000337 18.8494463121 -0.3306429812 0.0000000002 19.0493614802 -0.3248180764 -0.0000000382 19.2492766478 -0.3189931686 -0.0000000822 19.4491918114 -0.3131682571 -0.0000001300 -0.3814259434 -0.7008822216 0.0000007046 -0.1814785241 -0.6962962411 0.0000007162 0.0184689030 -0.6917102558 0.0000007260 0.2184163308 -0.6871242551 0.0000007345 0.4183637538 -0.6825382500 0.0000007432 0.6183111761 -0.6779522431 0.0000007526 0.8182585978 -0.6733662346 0.0000007626 1.0182060222 -0.6687802239 0.0000007731 1.2181534454 -0.6641942084 0.0000007850 1.4181008640 -0.6596081949 0.0000007985 1.6180482820 -0.6550221833 0.0000008121 1.8179956999 -0.6504361728 0.0000008246 2.0179431200 -0.6458501634 0.0000008351 2.2178905410 -0.6412641538 0.0000008441 2.4178379593 -0.6366781465 0.0000008535 2.6177853758 -0.6320921397 0.0000008636 2.8177327896 -0.6275061302 0.0000008754 3.0176802033 -0.6229201171 0.0000008895 3.2176276169 -0.6183341027 0.0000009088 3.4175750302 -0.6137480900 0.0000009328 3.6175224438 -0.6091620785 0.0000009613 3.8174698569 -0.6045760683 0.0000009943 4.0174172696 -0.5999900583 0.0000010317 4.2173646818 -0.5954040479 0.0000010725 4.4173120938 -0.5908180366 0.0000011132 4.6172595062 -0.5862320257 0.0000011520 4.8172069192 -0.5816460163 0.0000011872 5.0171543329 -0.5770600098 0.0000012160 5.2171017464 -0.5724740046 0.0000012318 5.4170491586 -0.5678879984 0.0000012358 5.6169965690 -0.5633019890 0.0000012289 5.8169439798 -0.5587159775 0.0000012113 6.0168913916 -0.5541299698 0.0000011821 6.2168388041 -0.5495439655 0.0000011374 6.4167862163 -0.5449579607 0.0000010822 6.6167336299 -0.5403719507 0.0000010201 6.8166810438 -0.5357859367 0.0000009532 7.0166284580 -0.5311999189 0.0000008838 7.2165758717 -0.5266138970 0.0000008139 7.4165232851 -0.5220278768 0.0000007461 7.6164706986 -0.5174418607 0.0000006825 7.8164181115 -0.5128558484 0.0000006245 8.0163655245 -0.5082698375 0.0000005745 8.2163129378 -0.5036838272 0.0000005371 8.4162603508 -0.4990978178 0.0000005091 8.6162077634 -0.4945118089 0.0000004887 8.8161551749 -0.4899257996 0.0000004749 9.0161025852 -0.4853397885 0.0000004660 9.2160499947 -0.4807537757 0.0000004626 9.4159974039 -0.4761677636 0.0000004621 9.6159448131 -0.4715817535 0.0000004629 9.8158922213 -0.4669957465 0.0000004643 10.0158396283 -0.4624097423 0.0000004667 10.2157870351 -0.4578237408 0.0000004740 10.4157344425 -0.4532377400 0.0000004872 10.6156818505 -0.4486517407 0.0000005072 10.8156292581 -0.4440657427 0.0000005361 11.0155766653 -0.4394797475 0.0000005769 11.2155240737 -0.4348937585 0.0000006372 11.4154714850 -0.4303077736 0.0000007124 11.6154188988 -0.4257217934 0.0000007997 11.8153663172 -0.4211358145 0.0000008978 12.0153137470 -0.4165498276 0.0000010057 12.2152611811 -0.4119638164 0.0000011233 12.4152086153 -0.4073777978 0.0000012460 12.6151560478 -0.4027917659 0.0000013717 12.8151034727 -0.3982057299 0.0000014973 13.0150508999 -0.3936196892 0.0000016221 13.2149983236 -0.3890336376 0.0000017456 13.4149457415 -0.3844475790 0.0000018684 13.6648031476 -0.3654254975 -0.0000000000 13.8648012464 -0.3662978541 -0.0000000000 14.0647993442 -0.3671702122 -0.0000000000 14.2647974420 -0.3680425709 -0.0000000000 14.4647955398 -0.3689149290 -0.0000000000 14.6647936376 -0.3697872874 -0.0000000000 14.8647917352 -0.3706596458 0.0000000000 15.0647898329 -0.3715320039 0.0000000000 15.2647879310 -0.3724043627 0.0000000000 15.4647860287 -0.3732767205 0.0000000000 15.6647841268 -0.3741490786 0.0000000000 15.8647822219 -0.3750214390 0.0000000000 16.1455470683 -0.2361476257 0.0000001907 16.3454622261 -0.2303227063 0.0000002005 16.5453773868 -0.2244977892 0.0000002030 16.7452925498 -0.2186728786 0.0000001967 16.9452077135 -0.2128479728 0.0000001870 17.1451228766 -0.2070230684 0.0000001747 17.3450380385 -0.2011981669 0.0000001610 17.5449532023 -0.1953732628 0.0000001480 17.7448683689 -0.1895483537 0.0000001365 17.9447835349 -0.1837234438 0.0000001236 18.1446987005 -0.1778985366 0.0000001065 18.3446138674 -0.1720736339 0.0000000853 18.5445290385 -0.1662487348 0.0000000605 18.7444442100 -0.1604238306 0.0000000306 18.9443593785 -0.1545989262 -0.0000000046 19.1442745453 -0.1487740198 -0.0000000455 19.3441897095 -0.1429491098 -0.0000000912 19.5441048688 -0.1371241974 -0.0000001389 -0.4853712291 -0.5300156757 0.0000006072 -0.2854238103 -0.5254296934 0.0000006211 -0.0854763910 -0.5208437080 0.0000006347 0.1144710306 -0.5162577135 0.0000006477 0.3144184510 -0.5116717112 0.0000006608 0.5143658711 -0.5070857053 0.0000006744 0.7143132913 -0.5024996981 0.0000006893 0.9142607112 -0.4979136888 0.0000007057 1.1142081343 -0.4933276743 0.0000007235 1.3141555530 -0.4887416610 0.0000007428 1.5141029714 -0.4841556487 0.0000007624 1.7140503892 -0.4795696383 0.0000007814 1.9139978067 -0.4749836285 0.0000007991 2.1139452277 -0.4703976199 0.0000008146 2.3138926470 -0.4658116115 0.0000008287 2.5138400647 -0.4612256037 0.0000008424 2.7137874804 -0.4566395942 0.0000008563 2.9137348947 -0.4520535826 0.0000008712 3.1136823076 -0.4474675689 0.0000008889 3.3136297219 -0.4428815561 0.0000009105 3.5135771354 -0.4382955444 0.0000009356 3.7135245488 -0.4337095335 0.0000009645 3.9134719622 -0.4291235231 0.0000009968 4.1134193735 -0.4245375123 0.0000010323 4.3133667862 -0.4199515013 0.0000010687 4.5133141989 -0.4153654905 0.0000011041 4.7132616121 -0.4107794808 0.0000011365 4.9132090263 -0.4061934727 0.0000011637 5.1131564396 -0.4016074667 0.0000011810 5.3131038531 -0.3970214601 0.0000011857 5.5130512652 -0.3924354516 0.0000011801 5.7129986768 -0.3878494412 0.0000011637 5.9129460898 -0.3832634319 0.0000011365 6.1128935011 -0.3786774265 0.0000010956 6.3128409137 -
[...]
      <PointData Scalars="radius">
        <DataArray type="Float32" Name="radius" format="ascii">
 0.1000000000 0.1000000000 0.1000000000 0.1000000000 0.1000000000 0.1000000000 0.1000000000 0.1000000000 0.1000000000 0.1000000000 0.1000000000 0.1000000000 0.1000000000 0.1000000000 0.1000000000 0.1000000000 0.1000000000 0.1000000000 0.1000000000 0.1000000000 0.1000000000 0.1000000000 0.1000000000 0.1000000000 0.1000000000 0.1000000000 0.1000000000 0.1000000000 0.1000000000 0.1000000000 0.1000000000 0.1000000000 0.1000000000 0.1000000000 0.1000000000 0.1000000000 0.1000000000 0.1000000000 0.1000000000 0.1000000000 0.1000000000 0.1000000000 0.1000000000 0.1000000000 0.1000000000 0.1000000000 0.1000000000 0.1000000000 0.1000000000 0.1000000000 0.1000000000 0.1000000000 0.1000000000 0.1000000000 0.1000000000 0.1000000000 0.1000000000 0.1000000000 0.1000000000 0.1000000000 0.1000000000 0.1000000000 0.1000000000 0.1000000000 0.1000000000 0.1000000000 0.1000000000 0.1000000000 0.1000000000 0.1000000000 0.1000000000 0.1000000000 0.1000000000 0.1000000000 0.1000000000 0.1000000000 0.1000000000 0.1000000000 0.1000000000 0.1000000000 0.1000000000 0.1000000000 0.1000000000 0.1000000000 0.1000000000 0.1000000000 0.1000000000 0.1000000000 0.1000000000 0.1000000000 0.1000000000 0.1000000000 0.1000000000 0.1000000000 0.1000000000 0.1000000000 0.1000000000 0.1000000000 0.1000000000 0.1000000000 0.1000000000 0.1000000000 0.1000000000 0.1000000000 0.1000000000 0.1000000000 0.1000000000 0.1000000000 0.1000000000 0.1000000000 0.1000000000 0.1000000000 0.1000000000 0.1000000000 0.1000000000 0.1000000000 0.1000000000 0.1000000000 0.1000000000 0.1000000000 0.1000000000 0.1000000000 0.1000000000 0.1000000000 0.1000000000 0.1000000000 0.1000000000 0.1000000000 0.1000000000 0.1000000000 0.1000000000 0.1000000000 0.1000000000 0.1000000000 0.1000000000 0.1000000000 0.1000000000 0.1000000000 0.1000000000 0.1000000000 0.1000000000 0.1000000000 0.1000000000 0.1000000000 0.1000000000 0.1000000000 0.1000000000 0.1000000000 0.1000000000 0.1000000000 0.1000000000 0.1000000000 0.1000000000 0.1000000000 0.1000000000 0.1000000000 0.1000000000 0.1000000000 0.1000000000 0.1000000000 0.1000000000 0.1000000000 0.1000000000 0.1000000000 0.1000000000 0.1000000000 0.1000000000 0.1000000000 0.1000000000 0.1000000000 0.1000000000 0.1000000000 0.1000000000 0.1000000000 0.1000000000 0.1000000000 0.1000000000 0.1000000000 0.1000000000 0.1000000000 0.1000000000 0.1000000000 0.1000000000 0.1000000000 0.1000000000 0.1000000000 0.1000000000 0.1000000000 0.1000000000 0.1000000000 0.1000000000 0.1000000000 0.1000000000 0.1000000000 0.1000000000 0.1000000000 0.1000000000 0.1000000000 0.1000000000 0.1000000000 0.1000000000 0.1000000000 0.1000000000 0.1000000000 0.1000000000 0.1000000000 0.1000000000 0.1000000000 0.1000000000 0.1000000000 0.1000000000 0.1000000000 0.1000000000 0.1000000000 0.1000000000 0.1000000000 0.1000000000 0.1000000000 0.1000000000 0.1000000000 0.1000000000 0.1000000000 0.1000000000 0.1000000000 0.1000000000 0.1000000000 0.1000000000 0.1000000000 0.1000000000 0.1000000000 0.1000000000 0.1000000000 0.1000000000 0.1000000000 0.1000000000 0.1000000000 0.1000000000 0.1000000000 0.1000000000 0.1000000000 0.1000000000 0.1000000000 0.1000000000 0.1000000000 0.1000000000 0.1000000000 0.1000000000 0.1000000000 0.1000000000 0.1000000000 0.1000000000 0.1000000000 0.1000000000 0.1000000000 0.1000000000 0.1000000000 0.1000000000 0.1000000000 0.1000000000 0.1000000000 0.1000000000 0.1000000000 0.1000000000 0.1000000000 0.1000000000 0.1000000000 0.1000000000 0.1000000000 0.1000000000 0.1000000000 0.1000000000 0.1000000000 0.1000000000 0.1000000000 0.1000000000 0.1000000000 0.1000000000 0.1000000000 0.1000000000 0.1000000000 0.1000000000 0.1000000000 0.1000000000 0.1000000000 0.1000000000 0.1000000000 0.1000000000 0.1000000000 0.1000000000 0.1000000000 0.1000000000 0.1000000000 0.1000000000 0.1000000000 0.1000000000 0.1000000000 0.1000000000 0.1000000000 0.1000000000 0.1000000000 0.1000000000 0.1000000000 0.1000000000 0.1000000000 0.1000000000 0.1000000000 0.1000000000 0.1000000000 0.1000000000 0.1000000000 0.1000000000 0.1000000000 0.1000000000 0.1000000000 0.1000000000 0.1000000000 0.1000000000 0.1000000000 0.1000000000 0.1000000000 0.1000000000 0.1000000000 0.1000000000 0.1000000000 0.1000000000 0.1000000000 0.1000000000 0.1000000000 0.1000000000 0.1000000000 0.1000000000 0.1000000000 0.1000000000 0.1000000000 0.1000000000 0.1000000000 0.1000000000 0.1000000000 0.1000000000 0.1000000000 0.1000000000 0.1000000000 0.1000000000 0.1000000000 0.1000000000 0.1000000000 0.1000000000 0.1000000000 0.1000000000 0.1000000000 0.1000000000 0.1000000000 0.1000000000 0.1000000000 0.1000000000 0.1000000000 0.1000000000 0.1000000000 0.1000000000 0.1000000000 0.1000000000 0.1000000000 0.1000000000 0.1000000000 0.1000000000 0.1000000000 0.1000000000 0.1000000000 0.1000000000 0.1000000000 0.1000000000 0.1000000000 0.1000000000 0.1000000000 0.1000000000 0.1000000000 0.1000000000 0.1000000000 0.1000000000 0.1000000000 0.1000000000 0.1000000000 0.1000000000 0.1000000000 0.1000000000 0.1000000000 0.1000000000 0.1000000000 0.1000000000 0.1000000000 0.1000000000 0.1000000000 0.1000000000 0.1000000000 0.1000000000 0.1000000000 0.1000000000 0.1000000000 0.1000000000 0.1000000000 0.1000000000 0.1000000000 0.1000000000 0.1000000000 0.1000000000 0.1000000000 0.1000000000 0.1000000000 0.1000000000 0.1000000000 0.1000000000 0.1000000000 0.1000000000 0.1000000000 0.1000000000 0.1000000000 0.1000000000 0.1000000000 0.1000000000 0.1000000000 0.1000000000 0.1000000000 0.1000000000 0.1000000000 0.1000000000 0.1000000000 0.1000000000 0.1000000000 0.1000000000 0.1000000000 0.1000000000 0.1000000000 0.1000000000 0.1000000000 0.1000000000 0.1000000000 0.1000000000 0.1000000000 0.1000000000 0.1000000000 0.1000000000 0.1000000000 0.1000000000 0.1000000000 0.1000000000 0.1000000000 0.1000000000 0.1000000000 0.1000000000 0.1000000000 0.1000000000 0.1000000000 0.1000000000 0.1000000000 0.1000000000 0.1000000000 0.1000000000 0.1000000000 0.1000000000 0.1000000000 0.1000000000 0.1000000000 0.1000000000 0.1000000000 0.1000000000 0.1000000000 0.1000000000 0.1000000000 0.1000000000 0.1000000000 0.1000000000 0.1000000000 0.1000000000 0.1000000000 0.1000000000 0.1000000000 0.1000000000 0.1000000000 0.1000000000 0.1000000000 0.1000000000 0.1000000000 0.1000000000 0.1000000000 0.1000000000 0.1000000000 0.1000000000 0.1000000000 0.1000000000 0.1000000000 0.1000000000 0.1000000000 0.1000000000 0.1000000000 0.1000000000 0.1000000000 0.1000000000 0.1000000000 0.1000000000 0.1000000000 0.1000000000 0.1000000000 0.1000000000 0.1000000000 0.1000000000 0.1000000000 0.1000000000 0.1000000000 0.1000000000 0.1000000000 0.1000000000 0.1000000000 0.1000000000 0.1000000000 0.1000000000 0.1000000000 0.1000000000 0.1000000000 0.1000000000 0.1000000000 0.1000000000 0.1000000000 0.1000000000 0.1000000000 0.1000000000 0.1000000000 0.1000000000 0.1000000000 0.1000000000 0.1000000000 0.1000000000 0.1000000000 0.1000000000 0.1000000000 0.1000000000 0.1000000000 0.1000000000 0.1000000000 0.1000000000 0.1000000000 0.1000000000 0.1000000000 0.1000000000 0.1000000000 0.1000000000 0.1000000000 0.1000000000 0.1000000000 0.1000000000 0.1000000000 0.1000000000 0.1000000000 0.1000000000 0.1000000000 0.1000000000 0.1000000000 0.1000000000 0.1000000000 0.1000000000 0.1000000000 0.1000000000 0.1000000000 0.1000000000 0.1000000000 0.1000000000 0.1000000000 0.1000000000 0.1000000000 0.1000000000 0.1000000000 0.1000000000 0.1000000000 0.1000000000 0.1000000000 0.1000000000 0.1000000000 0.1000000000 0.1000000000 0.1000000000 0.1000000000 0.1000000000 0.1000000000 0.1000000000 0.1000000000 0.1000000000 0.1000000000 0.1000000000 0.1000000000 0.1000000000 0.1000000000 0.1000000000 0.1000000000 0.1000000000 0.1000000000 0.1000000000 0.1000000000 0.1000000000 0.1000000000 0.1000000000 0.1000000000 0.1000000000 0.1000000000 0.1000000000 0.1000000000 0.1000000000 0.1000000000 0.1000000000 0.1000000000 0.1000000000 0.1000000000 0.1000000000 0.1000000000 0.1000000000 0.1000000000 0.1000000000 0.1000000000 0.1000000000 0.1000000000 0.1000000000 0.1000000000 0.1000000000 0.1000000000 0.1000000000 0.1000000000 0.1000000000 0.1000000000 0.1000000000 0.1000000000 0.1000000000 0.1000000000 0.1000000000 0.1000000000 0.1000000000 0.1000000000 0.1000000000 0.1000000000 0.1000000000 0.1000000000 0.1000000000 0.1000000000 0.1000000000 0.1000000000 0.1000000000 0.1000000000 0.1000000000 0.1000000000 0.1000000000 0.1000000000 0.1000000000 0.1000000000 0.1000000000 0.1000000000 0.1000000000 0.1000000000 0.1000000000 0.1000000000 0.1000000000 0.1000000000 0.1000000000 0.1000000000 0.1000000000 0.1000000000 0.1000000000 0.1000000000 0.1000000000 0.1000000000 0.1000000000 0.1000000000 0.1000000000 0.1000000000 0.1000000000 0.1000000000 0.1000000000 0.1000000000 0.1000000000 0.1000000000 0.1000000000 0.1000000000 0.1000000000 0.1000000000 0.1000000000 0.1000000000 0.1000000000 0.1000000000 0.1000000000 0.1000000000 0.1000000000 0.1000000000 0.1000000000 0.1000000000 0.1000000000 0.1000000000 0.1000000000 0.1000000000 0.1000000000 0.1000000000 0.1000000000 0.1000000000 0.1000000000 0.1000000000 0.1000000000 0.1000000000 0.1000000000 0.1000000000 0.1000000000 0.1000000000 0.1000000000 0.1000000000 0.1000000000 0.1000000000 0.1000000000 0.1000000000 0.1000000000 0.1000000000 0.1000000000 0.1000000000 0.1000000000 0.1000000000 0.1000000000 0.1000000000 0.1000000000 0.1000000000 0.1000000000 0.1000000000 0.1000000000 0.1000000000 0.1000000000 0.1000000000 0.1000000000 0.1000000000 0.1000000000 0.1000000000 0.1000000000 0.1000000000 0.1000000000 0.1000000000 0.1000000000 0.1000000000 0.1000000000 0.1000000000 0.1000000000 0.1000000000 0.1000000000 0.1000000000 0.1000000000 0.1000000000 0.1000000000 0.1000000000 0.1000000000 0.1000000000 0.1000000000 0.1000000000 0.1000000000 0.1000000000 0.1000000000 0.1000000000 0.1000000000 0.1000000000 0.1000000000 0.1000000000 0.1000000000 0.1000000000 0.1000000000 0.1000000000 0.1000000000 0.1000000000 0.1000000000 0.1000000000 0.1000000000 0.1000000000 0.1000000000 0.1000000000 0.1000000000 0.1000000000 0.1000000000 0.1000000000 0.1000000000 0.1000000000 0.1000000000 0.1000000000 0.1000000000 0.1000000000 0.1000000000 0.1000000000 0.1000000000 0.1000000000 0.1000000000 0.1000000000 0.1000000000 0.1000000000 0.1000000000 0.1000000000 0.1000000000 0.1000000000 0.1000000000 0.1000000000 0.1000000000 0.1000000000 0.1000000000 0.1000000000 0.1000000000 0.1000000000 0.1000000000 0.1000000000 0.1000000000 0.1000000000 0.1000000000 0.1000000000 0.1000000000 0.1000000000 0.1000000000 0.1000000000 0.1000000000 0.1000000000 0.1000000000 0.1000000000 0.1000000000 0.1000000000 0.1000000000 0.1000000000 0.1000000000 0.1000000000 0.1000000000 0.1000000000 0.1000000000 0.1000000000 0.1000000000 0.1000000000 0.1000000000 0.1000000000 0.1000000000 0.1000000000 0.1000000000 0.1000000000 0.1000000000 0.1000000000 0.1000000000 0.1000000000 0.1000000000 0.1000000000 0.1000000000 0.1000000000 0.1000000000 0.1000000000 0.1000000000 0.1000000000 0.1000000000 0.1000000000 0.1000000000 0.1000000000 0.1000000000 0.1000000000 0.1000000000 0.1000000000 0.1000000000 0.1000000000 0.1000000000 0.1000000000 0.1000000000 0.1000000000 0.1000000000 0.1000000000 0.1000000000 0.1000000000 0.1000000000 0.1000000000 0.1000000000 0.1000000000 0.1000000000 0.1000000000 0.1000000000 0.1000000000 0.1000000000 0.1000000000 0.1000000000 0.1000000000 0.1000000000 0.1000000000 0.1000000000 0.1000000000 0.1000000000 0.1000000000 0.1000000000 0.1000000000 0.1000000000 0.1000000000 0.1000000000 0.1000000000 0.1000000000 0.1000000000 0.1000000000 0.1000000000 0.1000000000 0.1000000000 0.1000000000 0.1000000000 0.1000000000 0.1000000000 0.1000000000 0.1000000000 0.1000000000 0.1000000000 0.1000000000 0.1000000000 0.1000000000 0.1000000000 0.1000000000 0.1000000000 0.1000000000 0.1000000000 0.1000000000 0.1000000000 0.1000000000 0.1000000000 0.1000000000 0.1000000000 0.1000000000 0.1000000000 0.1000000000 0.1000000000 0.1000000000 0.1000000000 0.1000000000 0.1000000000 0.1000000000 0.1000000000 0.1000000000 0.1000000000 0.1000000000 0.1000000000 0.1000000000 0.1000000000 0.1000000000 0.1000000000 0.1000000000 0.1000000000 0.1000000000 0.1000000000 0.1000000000 0.1000000000 0.1000000000 0.1000000000 0.1000000000 0.1000000000 0.1000000000 0.1000000000 0.1000000000 0.1000000000 0.1000000000 0.1000000000 0.1000000000 0.1000000000 0.1000000000 0.1000000000 0.1000000000 0.1000000000 0.1000000000 0.1000000000 0.1000000000 0.1000000000 0.1000000000 0.1000000000 0.1000000000 0.1000000000 0.1000000000 0.1000000000 0.1000000000 0.1000000000 0.1000000000 0.1000000000 0.1000000000 0.1000000000 0.1000000000 0.1000000000 0.1000000000 0.1000000000 0.1000000000 0.1000000000 0.1000000000 0.1000000000 0.1000000000 0.1000000000 0.1000000000 0.1000000000 0.1000000000 0.1000000000 0.1000000000 0.1000000000 0.1000000000 0.1000000000 0.1000000000 0.1000000000 0.1000000000 0.1000000000 0.1000000000 0.1000000000 0.1000000000 0.1000000000 0.1000000000 0.1000000000 0.1000000000 0.1000000000 0.1000000000 0.1000000000 0.1000000000 0.1000000000 0.1000000000 0.1000000000 0.1000000000 0.1000000000 0.1000000000 0.1000000000 0.1000000000 0.1000000000 0.1000000000 0.1000000000 0.1000000000 0.1000000000 0.1000000000 0.1000000000 0.1000000000 0.1000000000 0.1000000000 0.1000000000 0.1000000000 0.1000000000 0.1000000000 0.1000000000 0.1000000000 0.1000000000 0.1000000000 0.1000000000 0.1000000000 0.1000000000 0.1000000000 0.1000000000 0.1000000000 0.1000000000 0.1000000000 0.1000000000 0.1000000000 0.1000000000 0.1000000000 0.1000000000 0.1000000000 0.1000000000 0.1000000000 0.1000000000 0.1000000000 0.1000000000 0.1000000000 0.1000000000 0.1000000000 0.1000000000 0.1000000000 0.1000000000 0.1000000000 0.1000000000 0.1000000000 0.1000000000 0.1000000000 0.1000000000 0.1000000000 0.1000000000 0.1000000000 0.1000000000 0.1000000000 0.1000000000 0.1000000000 0.1000000000 0.1000000000 0.1000000000 0.1000000000 0.1000000000 0.1000000000 0.1000000000 0.1000000000 0.1000000000 0.1000000000 0.1000000000 0.1000000000 0.1000000000 0.1000000000 0.1000000000 0.1000000000 0.1000000000 0.1000000000 0.1000000000 0.1000000000 0.1000000000 0.1000000000 0.1000000000 0.1000000000 0.1000000000 0.1000000000 0.1000000000 0.1000000000 0.1000000000 0.1000000000 0.1000000000 0.1000000000 0.1000000000 0.1000000000 0.1000000000 0.1000000000 0.1000000000 0.1000000000 0.1000000000 0.1000000000 0.1000000000 0.1000000000 0.1000000000 0.1000000000 0.1000000000 0.1000000000 0.1000000000 0.1000000000 0.1000000000 0.1000000000 0.1000000000 0.1000000000 0.1000000000 0.1000000000 0.1000000000 0.1000000000 0.1000000000 0.1000000000 0.1000000000 0.1000000000 0.1000000000 0.1000000000 0.1000000000 0.1000000000 0.1000000000 0.1000000000 0.1000000000 0.1000000000 0.1000000000 0.1000000000 0.1000000000 0.1000000000 0.1000000000 0.1000000000 0.1000000000 0.1000000000 0.1000000000 0.1000000000 0.1000000000 0.1000000000 0.1000000000 0.1000000000 0.1000000000 0.1000000000 0.1000000000 0.1000000000 0.1000000000 0.1000000000 0.1000000000 0.1000000000 0.1000000000 0.1000000000 0.1000000000 0.1000000000 0.1000000000 0.1000000000 0.1000000000 0.1000000000 0.1000000000 0.1000000000 0.1000000000 0.1000000000 0.1000000000 0.1000000000 0.1000000000 0.1000000000 0.1000000000 0.1000000000 0.1000000000 0.1000000000 0.1000000000 0.1000000000 0.1000000000 0.1000000000 0.1000000000 0.1000000000 0.1000000000 0.1000000000 0.1000000000 0.1000000000 0.1000000000 0.1000000000 0.1000000000 0.1000000000 0.1000000000 0.1000000000 0.1000000000 0.1000000000 0.1000000000 0.1000000000 0.1000000000 0.1000000000 0.1000000000 0.1000000000 0.1000000000 0.1000000000 0.1000000000 0.1000000000 0.1000000000 0.1000000000 0.1000000000 0.1000000000 0.1000000000 0.1000000000 0.1000000000 0.1000000000 0.1000000000 0.1000000000 0.1000000000 0.1000000000 0.1000000000 0.1000000000 0.1000000000 0.1000000000 0.1000000000 0.1000000000 0.1000000000 0.1000000000 0.1000000000 0.1000000000 0.1000000000 0.1000000000 0.1000000000 0.1000000000 0.1000000000 0.1000000000 0.1000000000 0.1000000000 0.1000000000 0.1000000000 0.1000000000 0.1000000000 0.1000000000 0.1000000000 0.1000000000 0.1000000000 0.1000000000 0.1000000000 0.1000000000 0.1000000000 0.1000000000 0.1000000000 0.1000000000 0.1000000000 0.1000000000 0.1000000000 0.1000000000 0.1000000000 0.1000000000 0.1000000000 0.1000000000 0.1000000000 0.1000000000 0.1000000000 0.1000000000 0.1000000000 0.1000000000 0.1000000000 0.1000000000 0.1000000000 0.1000000000 0.1000000000 0.1000000000 0.1000000000 0.1000000000 0.1000000000 0.1000000000 0.1000000000 0.1000000000 0.1000000000 0.1000000000 0.1000000000 0.1000000000 0.1000000000 0.1000000000 0.1000000000 0.1000000000 0.1000000000 0.1000000000 0.1000000000 0.1000000000 0.1000000000 0.1000000000 0.1000000000 0.1000000000 0.1000000000 0.1000000000 0.1000000000 0.1000000000 0.1000000000 0.1000000000 0.1000000000 0.1000000000 0.1000000000 0.1000000000 0.1000000000 0.1000000000 0.1000000000 0.1000000000 0.1000000000 0.1000000000 0.1000000000 0.1000000000 0.1000000000 0.1000000000 0.1000000000 0.1000000000 0.1000000000 0.1000000000 0.1000000000 0.1000000000 0.1000000000 0.1000000000 0.1000000000 0.1000000000 0.1000000000 0.1000000000 0.1000000000 0.1000000000 0.1000000000 0.1000000000 0.1000000000 0.1000000000 0.1000000000 0.1000000000 0.1000000000 0.1000000000 0.1000000000 0.1000000000 0.1000000000 0.1000000000 0.1000000000 0.1000000000 0.1000000000 0.1000000000 0.1000000000 0.1000000000 0.1000000000 0.1000000000 0.1000000000 0.1000000000 0.1000000000 0.1000000000 0.1000000000 0.1000000000 0.1000000000 0.1000000000 0.1000000000 0.1000000000 0.1000000000 0.1000000000 0.1000000000 0.1000000000 0.1000000000 0.1000000000 0.1000000000 0.1000000000 0.1000000000 0.1000000000 0.1000000000 0.1000000000 0.1000000000 0.1000000000 0.1000000000 0.1000000000 0.1000000000 0.1000000000 0.1000000000 0.1000000000 0.1000000000 0.1000000000 0.1000000000 0.1000000000 0.1000000000 0.1000000000 0.1000000000 0.1000000000 0.1000000000 0.1000000000 0.1000000000 0.1000000000 0.1000000000 0.1000000000 0.1000000000 0.1000000000 0.1000000000 0.1000000000 0.1000000000 0.1000000000 0.1000000000 0.1000000000 0.1000000000 0.1000000000 0.1000000000 0.1000000000 0.1000000000 0.1000000000 0.1000000000 0.1000000000 0.1000000000 0.1000000000 0.1000000000 0.1000000000 0.1000000000 0.1000000000 0.1000000000 0.1000000000 0.1000000000 0.1000000000 0.1000000000 0.1000000000 0.1000000000 0.1000000000 0.1000000000 0.1000000000 0.1000000000 0.1000000000 0.1000000000 0.1000000000 0.1000000000 0.1000000000 0.1000000000 0.1000000000 0.1000000000 0.1000000000 0.1000000000 0.1000000000 0.1000000000 0.1000000000 0.1000000000 0.1000000000 0.1000000000 0.1000000000 0.1000000000 0.1000000000 0.1000000000 0.1000000000 0.1000000000 0.1000000000 0.1000000000 0.1000000000 0.1000000000 0.1000000000 0.1000000000 0.1000000000 0.1000000000 0.1000000000 0.1000000000 0.1000000000 0.1000000000 0.1000000000 0.1000000000 0.1000000000 0.1000000000 0.1000000000 0.1000000000 0.1000000000 0.1000000000 0.1000000000 0.1000000000 0.1000000000 0.1000000000 0.1000000000 0.1000000000 0.1000000000 0.1000000000 0.1000000000 0.1000000000 0.1000000000 0.1000000000 0.1000000000 0.1000000000 0.1000000000 0.1000000000 0.1000000000 0.1000000000 0.1000000000 0.1000000000 0.1000000000 0.1000000000 0.1000000000 0.1000000000 0.1000000000 0.1000000000 0.1000000000 0.1000000000 0.1000000000 0.1000000000 0.1000000000 0.1000000000 0.1000000000 0.1000000000 0.1000000000 0.1000000000 0.1000000000 0.1000000000 0.1000000000 0.1000000000 0.1000000000 0.1000000000 0.1000000000 0.1000000000 0.1000000000 0.1000000000 0.1000000000 0.1000000000 0.1000000000 0.1000000000 0.1000000000 0.1000000000 0.1000000000 0.1000000000 0.1000000000 0.1000000000 0.1000000000 0.1000000000 0.1000000000 0.1000000000 0.1000000000 0.1000000000 0.1000000000 0.10000000