<?xml version="1.0"?>
<VTKFile type="UnstructuredGrid" version="0.1" byte_order="LittleEndian">
  <UnstructuredGrid>
    <FieldData>
      <DataArray type="Float32" Name="TIME"  NumberOfTuples="1" format="ascii"> 1.4500000000 </DataArray>
      <DataArray type="Int32"   Name="STEP"  NumberOfTuples="1" format="ascii"> 362500 </DataArray>
    </FieldData>
    <Piece NumberOfPoints="11600" NumberOfCells="11600">
      <Points>
        <DataArray type="Float32" NumberOfComponents="3" format="ascii">
 -0.2341424951 -0.5080120901 -0.0000020402 -0.0341625782 -0.5051779285 -0.0000020786 0.1658173418 -0.5023437662 -0.0000021160 0.3657972590 -0.4995096032 -0.0000021500 0.5657771789 -0.4966754397 -0.0000021948 0.7657570969 -0.4938412764 -0.0000022503 0.9657370148 -0.4910071130 -0.0000023203 1.1657169334 -0.4881729499 -0.0000024028 1.3656968499 -0.4853387860 -0.0000025145 1.5656767682 -0.4825046202 -0.0000025946 1.7656566857 -0.4796704540 -0.0000026526 1.9656366031 -0.4768362876 -0.0000026737 2.1656165210 -0.4740021207 -0.0000026530 2.3655964374 -0.4711679530 -0.0000025774 2.5655763550 -0.4683337849 -0.0000024534 2.7655562720 -0.4654996172 -0.0000023181 2.9655361890 -0.4626654495 -0.0000021858 3.1655161067 -0.4598312819 -0.0000020661 3.3654960233 -0.4569971132 -0.0000019653 3.5654759413 -0.4541629437 -0.0000018774 3.7654558585 -0.4513287742 -0.0000017865 3.9654357757 -0.4484946041 -0.0000016877 4.1654156932 -0.4456604339 -0.0000015818 4.3653956089 -0.4428262634 -0.0000014710 4.5653755256 -0.4399920930 -0.0000013916 4.7653554415 -0.4371579233 -0.0000013362 4.9653353571 -0.4343237537 -0.0000013054 5.1653152729 -0.4314895847 -0.0000012883 5.3652951854 -0.4286554164 -0.0000012709 5.5652751005 -0.4258212488 -0.0000012100 5.7652550148 -0.4229870823 -0.0000011193 5.9652349289 -0.4201529167 -0.0000010044 6.1652148435 -0.4173187524 -0.0000008835 6.3651947550 -0.4144845890 -0.0000007684 6.5651746700 -0.4116504268 -0.0000007209 6.7651545846 -0.4088162654 -0.0000007043 6.9651344994 -0.4059821045 -0.0000007135 7.1651144151 -0.4031479441 -0.0000007404 7.3650943284 -0.4003137841 -0.0000007872 7.5650742444 -0.3974796244 -0.0000008426 7.7650541599 -0.3946454653 -0.0000009077 7.9650340756 -0.3918113067 -0.0000009871 8.1650139919 -0.3889771490 -0.0000010824 8.3649939067 -0.3861429925 -0.0000012067 8.5649738238 -0.3833088365 -0.0000013352 8.7649537406 -0.3804746812 -0.0000014615 8.9649336576 -0.3776405261 -0.0000015753 9.1649135751 -0.3748063717 -0.0000016705 9.3648934911 -0.3719722179 -0.0000017470 9.5648734086 -0.3691380641 -0.0000017672 9.7648533256 -0.3663039106 -0.0000017605 9.9648332426 -0.3634697570 -0.0000017258 10.1648131601 -0.3606356032 -0.0000016683 10.3647930765 -0.3578014493 -0.0000015731 10.5647729939 -0.3549672949 -0.0000014894 10.7647529109 -0.3521331408 -0.0000014122 10.9647328277 -0.3492989867 -0.0000013481 11.1647127454 -0.3464648331 -0.0000012987 11.3646926617 -0.3436306797 -0.0000012819 11.5646725798 -0.3407965262 -0.0000012800 11.7646524974 -0.3379623727 -0.0000012911 11.9646324152 -0.3351282193 -0.0000013095 12.1646123346 -0.3322940658 -0.0000013281 12.3645922525 -0.3294599117 -0.0000013443 12.5645721722 -0.3266257574 -0.0000013456 12.7645520912 -0.3237916033 -0.0000013423 12.9645320107 -0.3209574476 -0.0000013526 13.1645119306 -0.3181232924 -0.0000013773 13.3644918504 -0.3152891360 -0.0000014437 13.5644717720 -0.3124549783 -0.0000015218 13.7644516909 -0.3096208175 -0.0000016241 13.9841389649 -0.3022884792 0.0000000000 14.1841383839 -0.3027703090 0.0000000000 14.3841378029 -0.3032521386 0.0000000000 14.5841372246 -0.3037339675 0.0000000000 14.7841366437 -0.3042157974 0.0000000000 14.9841360639 -0.3046976264 0.0000000000 15.1841354840 -0.3051794561 0.0000000000 15.3841349032 -0.3056612854 0.0000000000 15.5841343242 -0.3061431148 0.0000000000 15.7841337435 -0.3066249443 0.0000000000 15.9841331639 -0.3071067737 0.0000000000 16.1841325840 -0.3075886026 -0.0000000000 16.4314918853 -0.2282298703 0.0000000180 16.6314654429 -0.2249777841 0.0000000174 16.8314389993 -0.2217257003 0.0000000167 17.0314125586 -0.2184736162 0.0000000160 17.2313861165 -0.2152215322 0.0000000152 17.4313596743 -0.2119694481 0.0000000145 17.6313332332 -0.2087173642 0.0000000139 17.8313067904 -0.2054652804 0.0000000132 18.0312803495 -0.2022131969 0.0000000126 18.2312539080 -0.1989611136 0.0000000121 18.4312274664 -0.1957090307 0.0000000116 18.6312010268 -0.1924569481 0.0000000111 18.8311745861 -0.1892048651 0.0000000107 19.0311481467 -0.1859527808 0.0000000103 19.2311217056 -0.1827006965 0.0000000100 19.4310952641 -0.1794486120 0.0000000097 19.6310688219 -0.1761965271 0.0000000094 -0.1366069923 -0.3334073219 -0.0000020171 0.0633729246 -0.3305731601 -0.0000020532 0.2633528434 -0.3277389971 -0.0000020895 0.4633327625 -0.3249048341 -0.0000021302 0.6633126804 -0.3220706706 -0.0000021793 0.8632925983 -0.3192365069 -0.0000022398 1.0632725158 -0.3164023434 -0.0000023119 1.2632524333 -0.3135681795 -0.0000023931 1.4632323505 -0.3107340149 -0.0000024690 1.6632122674 -0.3078998490 -0.0000025242 1.8631921844 -0.3050656826 -0.0000025485 2.0631721013 -0.3022315157 -0.0000025342 2.2631520185 -0.2993973483 -0.0000024765 2.4631319357 -0.2965631805 -0.0000023699 2.6631118525 -0.2937290128 -0.0000022416 2.8630917695 -0.2908948450 -0.0000021111 3.0630716863 -0.2880606771 -0.0000019898 3.2630516034 -0.2852265089 -0.0000018840 3.4630315205 -0.2823923401 -0.0000017943 3.6630114375 -0.2795581707 -0.0000017074 3.8629913545 -0.2767240008 -0.0000016151 4.0629712714 -0.2738898304 -0.0000015149 4.2629511882 -0.2710556600 -0.0000014113 4.4629311049 -0.2682214897 -0.0000013208 4.6629110210 -0.2653873196 -0.0000012527 4.8628909369 -0.2625531498 -0.0000012084 5.0628708525 -0.2597189803 -0.0000011827 5.2628507678 -0.2568848114 -0.0000011607 5.4628306829 -0.2540506435 -0.0000011170 5.6628105977 -0.2512164766 -0.0000010439 5.8627905125 -0.2483823105 -0.0000009450 6.0627704272 -0.2455481454 -0.0000008314 6.2627503418 -0.2427139812 -0.0000007237 6.4627302564 -0.2398798187 -0.0000006529 6.6627101712 -0.2370456570 -0.0000006206 6.8626900864 -0.2342114960 -0.0000006181 7.0626700016 -0.2313773352 -0.0000006380 7.2626499170 -0.2285431749 -0.0000006757 7.4626298325 -0.2257090152 -0.0000007300 7.6626097482 -0.2228748560 -0.0000007942 7.8625896643 -0.2200406972 -0.0000008697 8.0625695805 -0.2172065389 -0.0000009591 8.2625494971 -0.2143723817 -0.0000010635 8.4625294141 -0.2115382257 -0.0000011803 8.6625093311 -0.2087040703 -0.0000012966 8.8624892484 -0.2058699151 -0.0000014036 9.0624691656 -0.2030357602 -0.0000014949 9.2624490831 -0.2002016060 -0.0000015652 9.4624290005 -0.1973674522 -0.0000015996 9.6624089176 -0.1945332987 -0.0000016046 9.8623888347 -0.1916991450 -0.0000015845 10.0623687516 -0.1888649914 -0.0000015410 10.2623486687 -0.1860308375 -0.0000014764 10.4623285858 -0.1831966832 -0.0000013985 10.6623085027 -0.1803625290 -0.0000013228 10.8622884199 -0.1775283751 -0.0000012550 11.0622683369 -0.1746942212 -0.0000011987 11.2622482542 -0.1718600677 -0.0000011582 11.4622281718 -0.1690259144 -0.0000011396 11.6622080894 -0.1661917610 -0.0000011353 11.8621880073 -0.1633576078 -0.0000011412 12.0621679251 -0.1605234542 -0.0000011523 12.2621478440 -0.1576893004 -0.0000011631 12.4621277628 -0.1548551467 -0.0000011675 12.6621076817 -0.1520209924 -0.0000011665 12.8620876009 -0.1491868379 -0.0000011688 13.0620675192 -0.1463526829 -0.0000011823 13.2620474392 -0.1435185266 -0.0000012165 13.4620273584 -0.1406843705 -0.0000012786 13.6620072771 -0.1378502116 -0.0000013573 13.8845565294 -0.1288429895 0.0000000000 14.0845559504 -0.1293248173 0.0000000000 14.2845553703 -0.1298066466 0.0000000000 14.4845547903 -0.1302884765 0.0000000000 14.6845542103 -0.1307703058 0.0000000000 14.8845536303 -0.1312521354 0.0000000000 15.0845530501 -0.1317339649 0.0000000000 15.2845524699 -0.1322157941 0.0000000000 15.4845518902 -0.1326976239 0.0000000000 15.6845513100 -0.1331794528 -0.0000000000 15.8845507303 -0.1336612820 -0.0000000000 16.0845501476 -0.1341431136 -0.0000000000 16.3286887168 -0.0566737340 0.0000000174 16.5286622737 -0.0534216470 0.0000000168 16.7286358326 -0.0501695618 0.0000000161 16.9286093914 -0.0469174778 0.0000000154 17.1285829496 -0.0436653938 0.0000000148 17.3285565079 -0.0404133098 0.0000000141 17.5285300660 -0.0371612259 0.0000000134 17.7285036246 -0.0339091417 0.0000000128 17.9284771834 -0.0306570582 0.0000000122 18.1284507421 -0.0274049749 0.0000000117 18.3284243009 -0.0241528920 0.0000000112 18.5283978600 -0.0209008097 0.0000000107 18.7283714198 -0.0176487264 0.0000000103 18.9283449795 -0.0143966429 0.0000000099 19.1283185384 -0.0111445587 0.0000000096 19.3282920972 -0.0078924743 0.0000000093 19.5282656556 -0.0046403898 0.0000000090 19.7282392129 -0.0013883050 0.0000000086 -0.2390514084 -0.1616367150 -0.0000019578 -0.0390714908 -0.1588025527 -0.0000019916 0.1609084282 -0.1559683900 -0.0000020258 0.3608883453 -0.1531342269 -0.0000020636 0.5608682642 -0.1503000635 -0.0000021078 0.7608481819 -0.1474658998 -0.0000021603 0.9608280994 -0.1446317362 -0.0000022218 1.1608080169 -0.1417975725 -0.0000022888 1.3607879326 -0.1389634073 -0.0000023542 1.5607678499 -0.1361292423 -0.0000024023 1.7607477666 -0.1332950763 -0.0000024257 1.9607276833 -0.1304609097 -0.0000024154 2.1607076004 -0.1276267427 -0.0000023687 2.3606875162 -0.1247925748 -0.0000022783 2.5606674334 -0.1219584074 -0.0000021590 2.7606473503 -0.1191242397 -0.0000020322 2.9606272672 -0.1162900720 -0.0000019102 3.1606071842 -0.1134559039 -0.0000018003 3.3605871002 -0.1106217352 -0.0000017069 3.5605670174 -0.1077875661 -0.0000016219 3.7605469343 -0.1049533965 -0.0000015350 3.9605268512 -0.1021192263 -0.0000014420 4.1605067682 -0.0992850559 -0.0000013445 4.3604866842 -0.0964508852 -0.0000012503 4.5604666009 -0.0936167150 -0.0000011738 4.7604465173 -0.0907825451 -0.0000011173 4.9604264334 -0.0879483754 -0.0000010802 5.1604063497 -0.0851142062 -0.0000010530 5.3603862641 -0.0822800380 -0.0000010188 5.5603661801 -0.0794458705 -0.0000009599 5.7603460957 -0.07661
[...]
      <PointData Scalars="radius">
        <DataArray type="Float32" Name="radius" format="ascii">
 0.1000000000 0.1000000000 0.1000000000 0.1000000000 0.1000000000 0.1000000000 0.1000000000 0.1000000000 0.1000000000 0.1000000000 0.1000000000 0.1000000000 0.1000000000 0.1000000000 0.1000000000 0.1000000000 0.1000000000 0.1000000000 0.1000000000 0.1000000000 0.1000000000 0.1000000000 0.1000000000 0.1000000000 0.1000000000 0.1000000000 0.1000000000 0.1000000000 0.1000000000 0.1000000000 0.1000000000 0.1000000000 0.1000000000 0.1000000000 0.1000000000 0.1000000000 0.1000000000 0.1000000000 0.1000000000 0.1000000000 0.1000000000 0.1000000000 0.1000000000 0.1000000000 0.1000000000 0.1000000000 0.1000000000 0.1000000000 0.1000000000 0.1000000000 0.1000000000 0.1000000000 0.1000000000 0.1000000000 0.1000000000 0.1000000000 0.1000000000 0.1000000000 0.1000000000 0.1000000000 0.1000000000 0.1000000000 0.1000000000 0.1000000000 0.1000000000 0.1000000000 0.1000000000 0.1000000000 0.1000000000 0.1000000000 0.1000000000 0.1000000000 0.1000000000 0.1000000000 0.1000000000 0.1000000000 0.1000000000 0.1000000000 0.1000000000 0.1000000000 0.1000000000 0.1000000000 0.1000000000 0.1000000000 0.1000000000 0.1000000000 0.1000000000 0.1000000000 0.1000000000 0.1000000000 0.1000000000 0.1000000000 0.1000000000 0.1000000000 0.1000000000 0.1000000000 0.1000000000 0.1000000000 0.1000000000 0.1000000000 0.1000000000 0.1000000000 0.1000000000 0.1000000000 0.1000000000 0.1000000000 0.1000000000 0.1000000000 0.1000000000 0.1000000000 0.1000000000 0.1000000000 0.1000000000 0.1000000000 0.1000000000 0.1000000000 0.1000000000 0.1000000000 0.1000000000 0.1000000000 0.1000000000 0.1000000000 0.1000000000 0.1000000000 0.1000000000 0.1000000000 0.1000000000 0.1000000000 0.1000000000 0.1000000000 0.1000000000 0.1000000000 0.1000000000 0.1000000000 0.1000000000 0.1000000000 0.1000000000 0.1000000000 0.1000000000 0.1000000000 0.1000000000 0.1000000000 0.1000000000 0.1000000000 0.1000000000 0.1000000000 0.1000000000 0.1000000000 0.1000000000 0.1000000000 0.1000000000 0.1000000000 0.1000000000 0.1000000000 0.1000000000 0.1000000000 0.1000000000 0.1000000000 0.1000000000 0.1000000000 0.1000000000 0.1000000000 0.1000000000 0.1000000000 0.1000000000 0.1000000000 0.1000000000 0.1000000000 0.1000000000 0.1000000000 0.1000000000 0.1000000000 0.1000000000 0.1000000000 0.1000000000 0.1000000000 0.1000000000 0.1000000000 0.1000000000 0.1000000000 0.1000000000 0.1000000000 0.1000000000 0.1000000000 0.1000000000 0.1000000000 0.1000000000 0.1000000000 0.1000000000 0.1000000000 0.1000000000 0.1000000000 0.1000000000 0.1000000000 0.1000000000 0.1000000000 0.1000000000 0.1000000000 0.1000000000 0.1000000000 0.1000000000 0.1000000000 0.1000000000 0.1000000000 0.1000000000 0.1000000000 0.1000000000 0.1000000000 0.1000000000 0.1000000000 0.1000000000 0.1000000000 0.1000000000 0.1000000000 0.1000000000 0.1000000000 0.1000000000 0.1000000000 0.1000000000 0.1000000000 0.1000000000 0.1000000000 0.1000000000 0.1000000000 0.1000000000 0.1000000000 0.1000000000 0.1000000000 0.1000000000 0.1000000000 0.1000000000 0.1000000000 0.1000000000 0.1000000000 0.1000000000 0.1000000000 0.1000000000 0.1000000000 0.1000000000 0.1000000000 0.1000000000 0.1000000000 0.1000000000 0.1000000000 0.1000000000 0.1000000000 0.1000000000 0.1000000000 0.1000000000 0.1000000000 0.1000000000 0.1000000000 0.1000000000 0.1000000000 0.1000000000 0.1000000000 0.1000000000 0.1000000000 0.1000000000 0.1000000000 0.1000000000 0.1000000000 0.1000000000 0.1000000000 0.1000000000 0.1000000000 0.1000000000 0.1000000000 0.1000000000 0.1000000000 0.1000000000 0.1000000000 0.1000000000 0.1000000000 0.1000000000 0.1000000000 0.1000000000 0.1000000000 0.1000000000 0.1000000000 0.1000000000 0.1000000000 0.1000000000 0.1000000000 0.1000000000 0.1000000000 0.1000000000 0.1000000000 0.1000000000 0.1000000000 0.1000000000 0.1000000000 0.1000000000 0.1000000000 0.1000000000 0.1000000000 0.1000000000 0.1000000000 0.1000000000 0.1000000000 0.1000000000 0.1000000000 0.1000000000 0.1000000000 0.1000000000 0.1000000000 0.1000000000 0.1000000000 0.1000000000 0.1000000000 0.1000000000 0.1000000000 0.1000000000 0.1000000000 0.1000000000 0.1000000000 0.1000000000 0.1000000000 0.1000000000 0.1000000000 0.1000000000 0.1000000000 0.1000000000 0.1000000000 0.1000000000 0.1000000000 0.1000000000 0.1000000000 0.1000000000 0.1000000000 0.1000000000 0.1000000000 0.1000000000 0.1000000000 0.1000000000 0.1000000000 0.1000000000 0.1000000000 0.1000000000 0.1000000000 0.1000000000 0.1000000000 0.1000000000 0.1000000000 0.1000000000 0.1000000000 0.1000000000 0.1000000000 0.1000000000 0.1000000000 0.1000000000 0.1000000000 0.1000000000 0.1000000000 0.1000000000 0.1000000000 0.1000000000 0.1000000000 0.1000000000 0.1000000000 0.1000000000 0.1000000000 0.1000000000 0.1000000000 0.1000000000 0.1000000000 0.1000000000 0.1000000000 0.1000000000 0.1000000000 0.1000000000 0.1000000000 0.1000000000 0.1000000000 0.1000000000 0.1000000000 0.1000000000 0.1000000000 0.1000000000 0.1000000000 0.1000000000 0.1000000000 0.1000000000 0.1000000000 0.1000000000 0.1000000000 0.1000000000 0.1000000000 0.1000000000 0.1000000000 0.1000000000 0.1000000000 0.1000000000 0.1000000000 0.1000000000 0.1000000000 0.1000000000 0.1000000000 0.1000000000 0.1000000000 0.1000000000 0.1000000000 0.1000000000 0.1000000000 0.1000000000 0.1000000000 0.1000000000 0.1000000000 0.1000000000 0.1000000000 0.1000000000 0.1000000000 0.1000000000 0.1000000000 0.1000000000 0.1000000000 0.1000000000 0.1000000000 0.1000000000 0.1000000000 0.1000000000 0.1000000000 0.1000000000 0.1000000000 0.1000000000 0.1000000000 0.1000000000 0.1000000000 0.1000000000 0.1000000000 0.1000000000 0.1000000000 0.1000000000 0.1000000000 0.1000000000 0.1000000000 0.1000000000 0.1000000000 0.1000000000 0.1000000000 0.1000000000 0.1000000000 0.1000000000 0.1000000000 0.1000000000 0.1000000000 0.1000000000 0.1000000000 0.1000000000 0.1000000000 0.1000000000 0.1000000000 0.1000000000 0.1000000000 0.1000000000 0.1000000000 0.1000000000 0.1000000000 0.1000000000 0.1000000000 0.1000000000 0.1000000000 0.1000000000 0.1000000000 0.1000000000 0.1000000000 0.1000000000 0.1000000000 0.1000000000 0.1000000000 0.1000000000 0.1000000000 0.1000000000 0.1000000000 0.1000000000 0.1000000000 0.1000000000 0.1000000000 0.1000000000 0.1000000000 0.1000000000 0.1000000000 0.1000000000 0.1000000000 0.1000000000 0.1000000000 0.1000000000 0.1000000000 0.1000000000 0.1000000000 0.1000000000 0.1000000000 0.1000000000 0.1000000000 0.1000000000 0.1000000000 0.1000000000 0.1000000000 0.1000000000 0.1000000000 0.1000000000 0.1000000000 0.1000000000 0.1000000000 0.1000000000 0.1000000000 0.1000000000 0.1000000000 0.1000000000 0.1000000000 0.1000000000 0.1000000000 0.1000000000 0.1000000000 0.1000000000 0.1000000000 0.1000000000 0.1000000000 0.1000000000 0.1000000000 0.1000000000 0.1000000000 0.1000000000 0.1000000000 0.1000000000 0.1000000000 0.1000000000 0.1000000000 0.1000000000 0.1000000000 0.1000000000 0.1000000000 0.1000000000 0.1000000000 0.1000000000 0.1000000000 0.1000000000 0.1000000000 0.1000000000 0.1000000000 0.1000000000 0.1000000000 0.1000000000 0.1000000000 0.1000000000 0.1000000000 0.1000000000 0.1000000000 0.1000000000 0.1000000000 0.1000000000 0.1000000000 0.1000000000 0.1000000000 0.1000000000 0.1000000000 0.1000000000 0.1000000000 0.1000000000 0.1000000000 0.1000000000 0.1000000000 0.1000000000 0.1000000000 0.1000000000 0.1000000000 0.1000000000 0.1000000000 0.1000000000 0.1000000000 0.1000000000 0.1000000000 0.1000000000 0.1000000000 0.1000000000 0.1000000000 0.1000000000 0.1000000000 0.1000000000 0.1000000000 0.1000000000 0.1000000000 0.1000000000 0.1000000000 0.1000000000 0.1000000000 0.1000000000 0.1000000000 0.1000000000 0.1000000000 0.1000000000 0.1000000000 0.1000000000 0.1000000000 0.1000000000 0.1000000000 0.1000000000 0.1000000000 0.1000000000 0.1000000000 0.1000000000 0.1000000000 0.1000000000 0.1000000000 0.1000000000 0.1000000000 0.1000000000 0.1000000000 0.1000000000 0.1000000000 0.1000000000 0.1000000000 0.1000000000 0.1000000000 0.1000000000 0.1000000000 0.1000000000 0.1000000000 0.1000000000 0.1000000000 0.1000000000 0.1000000000 0.1000000000 0.1000000000 0.1000000000 0.1000000000 0.1000000000 0.1000000000 0.1000000000 0.1000000000 0.1000000000 0.1000000000 0.1000000000 0.1000000000 0.1000000000 0.1000000000 0.1000000000 0.1000000000 0.1000000000 0.1000000000 0.1000000000 0.1000000000 0.1000000000 0.1000000000 0.1000000000 0.1000000000 0.1000000000 0.1000000000 0.1000000000 0.1000000000 0.1000000000 0.1000000000 0.1000000000 0.1000000000 0.1000000000 0.1000000000 0.1000000000 0.1000000000 0.1000000000 0.1000000000 0.1000000000 0.1000000000 0.1000000000 0.1000000000 0.1000000000 0.1000000000 0.1000000000 0.1000000000 0.1000000000 0.1000000000 0.1000000000 0.1000000000 0.1000000000 0.1000000000 0.1000000000 0.1000000000 0.1000000000 0.1000000000 0.1000000000 0.1000000000 0.1000000000 0.1000000000 0.1000000000 0.1000000000 0.1000000000 0.1000000000 0.1000000000 0.1000000000 0.1000000000 0.1000000000 0.1000000000 0.1000000000 0.1000000000 0.1000000000 0.1000000000 0.1000000000 0.1000000000 0.1000000000 0.1000000000 0.1000000000 0.1000000000 0.1000000000 0.1000000000 0.1000000000 0.1000000000 0.1000000000 0.1000000000 0.1000000000 0.1000000000 0.1000000000 0.1000000000 0.1000000000 0.1000000000 0.1000000000 0.1000000000 0.1000000000 0.1000000000 0.1000000000 0.1000000000 0.1000000000 0.1000000000 0.1000000000 0.1000000000 0.1000000000 0.1000000000 0.1000000000 0.1000000000 0.1000000000 0.1000000000 0.1000000000 0.1000000000 0.1000000000 0.1000000000 0.1000000000 0.1000000000 0.1000000000 0.1000000000 0.1000000000 0.1000000000 0.1000000000 0.1000000000 0.1000000000 0.1000000000 0.1000000000 0.1000000000 0.1000000000 0.1000000000 0.1000000000 0.1000000000 0.1000000000 0.1000000000 0.1000000000 0.1000000000 0.1000000000 0.1000000000 0.1000000000 0.1000000000 0.1000000000 0.1000000000 0.1000000000 0.1000000000 0.1000000000 0.1000000000 0.1000000000 0.1000000000 0.1000000000 0.1000000000 0.1000000000 0.1000000000 0.1000000000 0.1000000000 0.1000000000 0.1000000000 0.1000000000 0.1000000000 0.1000000000 0.1000000000 0.1000000000 0.1000000000 0.1000000000 0.1000000000 0.1000000000 0.1000000000 0.1000000000 0.1000000000 0.1000000000 0.1000000000 0.1000000000 0.1000000000 0.1000000000 0.1000000000 0.1000000000 0.1000000000 0.1000000000 0.1000000000 0.1000000000 0.1000000000 0.1000000000 0.1000000000 0.1000000000 0.1000000000 0.1000000000 0.1000000000 0.1000000000 0.1000000000 0.1000000000 0.1000000000 0.1000000000 0.1000000000 0.1000000000 0.1000000000 0.1000000000 0.1000000000 0.1000000000 0.1000000000 0.1000000000 0.1000000000 0.1000000000 0.1000000000 0.1000000000 0.1000000000 0.1000000000 0.1000000000 0.1000000000 0.1000000000 0.1000000000 0.1000000000 0.1000000000 0.1000000000 0.1000000000 0.1000000000 0.1000000000 0.1000000000 0.1000000000 0.1000000000 0.1000000000 0.1000000000 0.1000000000 0.1000000000 0.1000000000 0.1000000000 0.1000000000 0.1000000000 0.1000000000 0.1000000000 0.1000000000 0.1000000000 0.1000000000 0.1000000000 0.1000000000 0.1000000000 0.1000000000 0.1000000000 0.1000000000 0.1000000000 0.1000000000 0.1000000000 0.1000000000 0.1000000000 0.1000000000 0.1000000000 0.1000000000 0.1000000000 0.1000000000 0.1000000000 0.1000000000 0.1000000000 0.1000000000 0.1000000000 0.1000000000 0.1000000000 0.1000000000 0.1000000000 0.1000000000 0.1000000000 0.1000000000 0.1000000000 0.1000000000 0.1000000000 0.1000000000 0.1000000000 0.1000000000 0.1000000000 0.1000000000 0.1000000000 0.1000000000 0.1000000000 0.1000000000 0.1000000000 0.1000000000 0.1000000000 0.1000000000 0.1000000000 0.1000000000 0.1000000000 0.1000000000 0.1000000000 0.1000000000 0.1000000000 0.1000000000 0.1000000000 0.1000000000 0.1000000000 0.1000000000 0.1000000000 0.1000000000 0.1000000000 0.1000000000 0.1000000000 0.1000000000 0.1000000000 0.1000000000 0.1000000000 0.1000000000 0.1000000000 0.1000000000 0.1000000000 0.1000000000 0.1000000000 0.1000000000 0.1000000000 0.1000000000 0.1000000000 0.1000000000 0.1000000000 0.1000000000 0.1000000000 0.1000000000 0.1000000000 0.1000000000 0.1000000000 0.1000000000 0.1000000000 0.1000000000 0.1000000000 0.1000000000 0.1000000000 0.1000000000 0.1000000000 0.1000000000 0.1000000000 0.1000000000 0.1000000000 0.1000000000 0.1000000000 0.1000000000 0.1000000000 0.1000000000 0.1000000000 0.1000000000 0.1000000000 0.1000000000 0.1000000000 0.1000000000 0.1000000000 0.1000000000 0.1000000000 0.1000000000 0.1000000000 0.1000000000 0.1000000000 0.1000000000 0.1000000000 0.1000000000 0.1000000000 0.1000000000 0.1000000000 0.1000000000 0.1000000000 0.1000000000 0.1000000000 0.1000000000 0.1000000000 0.1000000000 0.1000000000 0.1000000000 0.1000000000 0.1000000000 0.1000000000 0.1000000000 0.1000000000 0.1000000000 0.1000000000 0.1000000000 0.1000000000 0.1000000000 0.1000000000 0.1000000000 0.1000000000 0.1000000000 0.1000000000 0.1000000000 0.1000000000 0.1000000000 0.1000000000 0.1000000000 0.1000000000 0.1000000000 0.1000000000 0.1000000000 0.1000000000 0.1000000000 0.1000000000 0.1000000000 0.1000000000 0.1000000000 0.1000000000 0.1000000000 0.1000000000 0.1000000000 0.1000000000 0.1000000000 0.1000000000 0.1000000000 0.1000000000 0.1000000000 0.1000000000 0.1000000000 0.1000000000 0.1000000000 0.1000000000 0.1000000000 0.1000000000 0.1000000000 0.1000000000 0.1000000000 0.1000000000 0.1000000000 0.1000000000 0.1000000000 0.1000000000 0.1000000000 0.1000000000 0.1000000000 0.1000000000 0.1000000000 0.1000000000 0.1000000000 0.1000000000 0.1000000000 0.1000000000 0.1000000000 0.1000000000 0.1000000000 0.1000000000 0.1000000000 0.1000000000 0.1000000000 0.1000000000 0.1000000000 0.1000000000 0.1000000000 0.1000000000 0.1000000000 0.1000000000 0.1000000000 0.1000000000 0.1000000000 0.1000000000 0.1000000000 0.1000000000 0.1000000000 0.1000000000 0.1000000000 0.1000000000 0.1000000000 0.1000000000 0.1000000000 0.1000000000 0.1000000000 0.1000000000 0.1000000000 0.1000000000 0.1000000000 0.1000000000 0.1000000000 0.1000000000 0.1000000000 0.1000000000 0.1000000000 0.1000000000 0.1000000000 0.1000000000 0.1000000000 0.1000000000 0.1000000000 0.1000000000 0.1000000000 0.1000000000 0.1000000000 0.1000000000 0.1000000000 0.1000000000 0.1000000000 0.1000000000 0.1000000000 0.1000000000 0.1000000000 0.1000000000 0.1000000000 0.1000000000 0.1000000000 0.1000000000 0.1000000000 0.1000000000 0.1000000000 0.1000000000 0.1000000000 0.1000000000 0.1000000000 0.1000000000 0.1000000000 0.1000000000 0.1000000000 0.1000000000 0.1000000000 0.1000000000 0.1000000000 0.1000000000 0.1000000000 0.1000000000 0.1000000000 0.1000000000 0.1000000000 0.1000000000 0.1000000000 0.1000000000 0.1000000000 0.1000000000 0.1000000000 0.1000000000 0.1000000000 0.1000000000 0.1000000000 0.1000000000 0.1000000000 0.1000000000 0.1000000000 0.1000000000 0.1000000000 0.1000000000 0.1000000000 0.1000000000 0.1000000000 0.1000000000 0.1000000000 0.1000000000 0.1000000000 0.1000000000 0.1000000000 0.1000000000 0.1000000000 0.1000000000 0.1000000000 0.1000000000 0.1000000000 0.1000000000 0.1000000000 0.1000000000 0.1000000000 0.1000000000 0.1000000000 0.1000000000 0.1000000000 0.1000000000 0.1000000000 0.1000000000 0.1000000000 0.1000000000 0.1000000000 0.1000000000 0.1000000000 0.1000000000 0.1000000000 0.1000000000 0.1000000000 0.1000000000 0.1000000000 0.1000000000 0.1000000000 0.1000000000 0.1000000000 0.1000000000 0.1000000000 0.1000000000 0.1000000000 0.1000000000 0.1000000000 0.1000000000 0.1000000000 0.1000000000 0.1000000000 0.1000000000 0.1000000000 0.1000000000 0.1000000000 0.1000000000 0.1000000000 0.1000000000 0.1000000000 0.1000000000 0.1000000000 0.1000000000 0.1000000000 0.1000000000 0.1000000000 0.1000000000 0.1000000000 0.1000000000 0.1000000000 0.1000000000 0.1000000000 0.1000000000 0.1000000000 0.1000000000 0.1000000000 0.1000000000 0.1000000000 0.1000000000 0.1000000000 0.1000000000 0.1000000000 0.1000000000 0.1000000000 0.1000000000 0.1000000000 0.1000000000 0.1000000000 0.1000000000 0.1000000000 0.1000000000 0.1000000000 0.1000000000 0.1000000000 0.1000000000 0.1000000000 0.1000000000 0.1000000000 0.1000000000 0.1000000000 0.1000000000 0.1000000000 0.1000000000 0.1000000000 0.1000000000 0.1000000000 0.1000000000 0.1000000000 0.1000000000 0.1000000000 0.1000000000 0.1000000000 0.1000000000 0.1000000000 0.1000000000 0.1000000000 0.1000000000 0.1000000000 0.1000000000 0.1000000000 0.1000000000 0.1000000000 0.1000000000 0.1000000000 0.1000000000 0.1000000000 0.1000000000 0.1000000000 0.1000000000 0.1000000000 0.1000000000 0.1000000000 0.1000000000 0.1000000000 0.1000000000 0.1000000000 0.1000000000 0.1000000000 0.1000000000 0.1000000000 0.1000000000 0.1000000000 0.1000000000 0.1000000000 0.1000000000 0.1000000000 0.1000000000 0.1000000000 0.1000000000 0.1000000000 0.1000000000 0.1000000000 0.1000000000 0.1000000000 0.1000000000 0.1000000000 0.1000000000 0.1000000000 0.1000000000 0.1000000000 0.1000000000 0.1000000000 0.1000000000 0.1000000000 0.1000000000 0.1000000000 0.1000000000 0.1000000000 0.1000000000 0.1000000000 0.1000000000 0.1000000000 0.1000000000 0.1000000000 0.1000000000 0.1000000000 0.1000000000 0.1000000000 0.1000000000 0.1000000000 0.1000000000 0.1000000000 0.1000000000 0.1000000000 0.1000000000 0.1000000000 0.1000000000 0.1000000000 0.1000000000 0.1000000000 0.1000000000 0.1000000000 0.1000000000 0.1000000000 0.1000000000 0.1000000000 0.1000000000 0.1000000000 0.1000000000 0.1000000000 0.1000000000 0.1000000000 0.1000000000 0.1000000000 0.1000000000 0.1000000000 0.1000000000 0.1000000000 0.1000000000 0.1000000000 0.1000000000 0.1000000000 0.1000000000 0.1000000000 0.1000000000 0.1000000000 0.1000000000 0.1000000000 0.1000000000 0.1000000000 0.1000000000 0.1000000000 0.1000000000 0.1000000000 0.1000000000 0.1000000000 0.1000000000 0.1000000000 0.1000000000 0.1000000000 0.1000000000 0.1000000000 0.1000000000 0.1000000000 0.1000000000 0.1000000000 0.1000000000 0.1000000000 0.1000000000 0.1000000000 0.1000000000 0.1000000000 0.1000000000 0.1000000000 0.1000000000 0.1000000000 0.1000000000 0.1000000000 0.1000000000 0.1000000000 0.1000000000 0.1000000000 0.1000000000 0.1000000000 0.1000000000 0.1000000000 0.1000000000 0.1000000000 0.1000000000 0.1000000000 0.1000000000 0.1000000000 0.1000000000 0.1000000000 0.1000000000 0.1000000000 0.1000000000 0.1000000000 0.1000000000 0.1000000000 0.1000000000 0.1000000000 0.1000000000 0.1000000000 0.1000000000 0.1000000000 0.1000000000 0.1000000000 0.1000000000 0.1000000000 0.1000000000 0.1000000000 0.1000000000 0.1000000000 0.1000000000 0.1000000000 0.1000000000 0.1000000000 0.1000000000 0.1000000000 0.1000000000 0.1000000000 0.1000000000 0.1000000000 0.1000000000 0.1000000000 0.1000000000 0.1000000000 0.1000000000 0.1000000000 0.1000000000 0.1000000000 0.1000000000 0.1000000000 0.1000000000 0.1000000000 0.1000000000 0.1000000000 0.1000000000 0.1000000000 0.1000000000 0.1000000000 0.1000000000 0.1000000000 0.1000000000 0.1000000000 0.1000000000 0.1000000000 0.1000000000 0.1000000000 0.1000000000 0.1000000000 0.1000000000 0.1000000000 0.1000000000 0.1000000000 0.1000000000 0.1000000000 0.1000000000 0.1000000000 0.1000000000 0.1000000000 0.1000000000 0.1000000000 0.1000000000 0.1000000000 0.1000000000 0.1000000000 0.1000000000 0.1000000000 0.1000000000 0.1000000000 0.1000000000 0.1000000000 0.1000000000 0.1000000000 0.1000000000 0.1000000000 0.1000000000 0.1000000000 0.1000000000 0.1000000000 0.1000000000 0.1000000000 0.1000000000 0.1000000000 0.1000000000 0.1000000000 0.1000000000 0.1000000000 0.1000000000 0.1000000000 0.1000000000 0.1000000000 0.1000000000 0.1000000000 0.1000000000 0.1000000000 0.1000000000 0.1000000000 0.1000000000 0.1000000000 0.1000000000 0.1000000000 0.1000000000 0.1000000000 0.1000000000 0.1000000000 0.1000000000 0.1000000000 0.1000000000 0.1000000000 0.1000000000 0.1000000000 0.1000000000 0.1000000000 0.1000000000 0.1000000000 0.1000000000 0.1000000000 0.10000000