<?xml version="1.0"?>
<VTKFile type="UnstructuredGrid" version="0.1" byte_order="LittleEndian">
  <UnstructuredGrid>
    <FieldData>
      <DataArray type="Float32" Name="TIME"  NumberOfTuples="1" format="ascii"> 0.9500000000 </DataArray>
      <DataArray type="Int32"   Name="STEP"  NumberOfTuples="1" format="ascii"> 237500 </DataArray>
    </FieldData>
    <Piece NumberOfPoints="24" NumberOfCells="24">
      <Points>
        <DataArray type="Float32" NumberOfComponents="3" format="ascii">
 -0.2305376802 9.5073704901 -0.0000000002 -0.1969963203 9.5793001687 -0.0830060339 -0.2321791204 9.5038504103 0.0040621321 -0.2305376802 9.5073704901 0.0000000000 -0.1121871383 9.8607003719 -0.0008282753 -0.1064027289 9.9268164740 -0.0702411882 -0.1136584094 9.8438836664 0.0168269777 -0.1121871383 9.8607003719 0.0000000000 -0.1151922470 10.1736481777 0.0000000000 -0.1151922470 10.1736481777 0.0000000000 -0.1228067007 10.2020657060 0.0000000000 -0.1409332726 10.2697149932 -0.0715728317 -0.1101368416 10.1158646293 0.1112063012 -0.1151922470 10.1736481777 0.0016753252 -0.1193866913 10.1893020570 0.0154953343 -0.1228067007 10.2020657060 0.0016753252 -0.1913958678 10.4086896223 -0.0191639810 -0.2076856304 10.4436231309 -0.0594768539 -0.1725028302 10.3681733725 0.0275913120 -0.1913958678 10.4086896223 0.0000000000 -0.3219574418 10.6256525256 0.0000000000 -0.3305900581 10.6379811793 -0.0056102328 -0.2828400507 10.5697871014 0.0814579331 -0.3219574418 10.6256525256 0.0101306248
        </DataArray>
      </Points>
      <Cells>
        <DataArray type="Int32" Name="connectivity" format="ascii">
 0 1 2 3 4 5 6 7 8 9 10 11 12 13 14 15 16 17 18 19 20 21 22 23
        </DataArray>
        <DataArray type="Int32" Name="offsets" format="ascii">
 1 2 3 4 5 6 7 8 9 10 11 12 13 14 15 16 17 18 19 20 21 22 23 24
        </DataArray>
        <DataArray type="UInt8" Name="types" format="ascii">
 1 1 1 1 1 1 1 1 1 1 1 1 1 1 1 1 1 1 1 1 1 1 1 1
        </DataArray>
      </Cells>
      <PointData Scalars="overlap">
        <DataArray type="Float32" Name="overlap" format="ascii">
 -0.0123409165 -0.0606529945 -0.0124814106 -0.0123409165 -0.0014859789 -0.0397224203 -0.0043842809 -0.0014893588 -0.0063806023 -0.0063806023 -0.0022315838 -0.0439402000 -0.0791530655 -0.0063674097 -0.0039908163 -0.0022178557 -0.0004197593 -0.0148693265 -0.0194516590 -0.0022320215 -0.0225380656 -0.0240453156 -0.0570084354 -0.0221185816
        </DataArray>
        <DataArray type="Float32" Name="contact normal" NumberOfComponents="3" format="ascii">
 0.9063077870 -0.4226182617 0.0000000000 0.4249786174 -0.7432603531 0.5166790322 0.9197687607 -0.3907956237 -0.0361138096 0.9063077870 -0.4226182617 -0.0000000015 0.9961946981 -0.0871557427 -0.0000000000 0.6821767363 -0.5365007835 0.4967915154 0.9826294183 0.0763680079 -0.1691370854 0.9961615216 -0.0871528402 -0.0081612034 0.8565510153 0.5158220098 0.0157484090 0.8565510153 0.5158220098 0.0157484090 0.9657961170 0.2587842896 0.0163875504 0.8118749215 -0.2861838418 0.5088790825 0.4803993015 0.6288310173 -0.6113820923 0.8566572527 0.5158859868 -0.0000000000 0.9165699501 0.3771446187 -0.1328964378 0.9659258263 0.2588190451 0.0000000000 0.9063077870 0.4226182617 -0.0000000000 0.9341133589 0.0653413384 0.3509454975 0.6037435797 0.6944689977 -0.3914160206 0.8902417116 0.4151265277 -0.1874557571 0.8163478446 0.5716129146 0.0826732878 0.8760210046 0.4652790540 0.1268960259 0.3879810307 0.8019299388 -0.4542896576 0.8191520443 0.5735764364 0.0000000000
        </DataArray>
        <DataArray type="Float32" Name="contact force" NumberOfComponents="3" format="ascii">
 0.0000000000 0.0000000000 0.0000000000 0.0000000000 0.0000000000 0.0000000000 0.0000000000 0.0000000000 0.0000000000 0.0000000000 0.0000000000 0.0000000000 0.0000000000 0.0000000000 0.0000000000 0.0000000000 0.0000000000 0.0000000000 0.0000000000 0.0000000000 0.0000000000 0.0000000000 0.0000000000 0.0000000000 0.0000000000 0.0000000000 0.0000000000 0.0000000000 0.0000000000 0.0000000000 0.0000000000 0.0000000000 0.0000000000 0.0000000000 0.0000000000 0.0000000000 0.0000000000 0.0000000000 0.0000000000 0.0000000000 0.0000000000 0.0000000000 0.0000000000 0.0000000000 0.0000000000 0.0000000000 0.0000000000 0.0000000000 0.0000000000 0.0000000000 0.0000000000 0.0000000000 0.0000000000 0.0000000000 0.0000000000 0.0000000000 0.0000000000 0.0000000000 0.0000000000 0.0000000000 0.0000000000 0.0000000000 0.0000000000 0.0000000000 0.0000000000 0.0000000000 0.0000000000 0.0000000000 0.0000000000 0.0000000000 0.0000000000 0.0000000000
        </DataArray>
        <DataArray type="Float32" Name="contact torque" NumberOfComponents="3" format="ascii">
 0.0000000000 0.0000000000 0.0000000000 0.0000000000 0.0000000000 0.0000000000 0.0000000000 0.0000000000 0.0000000000 0.0000000000 0.0000000000 0.0000000000 0.0000000000 0.0000000000 0.0000000000 0.0000000000 0.0000000000 0.0000000000 0.0000000000 0.0000000000 0.0000000000 0.0000000000 0.0000000000 0.0000000000 0.0000000000 0.0000000000 0.0000000000 0.0000000000 0.0000000000 0.0000000000 0.0000000000 0.0000000000 0.0000000000 0.0000000000 0.0000000000 0.0000000000 0.0000000000 0.0000000000 0.0000000000 0.0000000000 0.0000000000 0.0000000000 0.0000000000 0.0000000000 0.0000000000 0.0000000000 0.0000000000 0.0000000000 0.0000000000 0.0000000000 0.0000000000 0.0000000000 0.0000000000 0.0000000000 0.0000000000 0.0000000000 0.0000000000 0.0000000000 0.0000000000 0.0000000000 0.0000000000 0.0000000000 0.0000000000 0.0000000000 0.0000000000 0.0000000000 0.0000000000 0.0000000000 0.0000000000 0.0000000000 0.0000000000 0.0000000000
        </DataArray>
        <DataArray type="Float32" Name="sliding spring" NumberOfComponents="3" format="ascii">
 0.0000000000 0.0000000000 0.0000000000 0.0000000000 0.0000000000 0.0000000000 0.0000000000 0.0000000000 0.0000000000 0.0000000000 0.0000000000 0.0000000000 0.0000000000 0.0000000000 0.0000000000 0.0000000000 0.0000000000 0.0000000000 0.0000000000 0.0000000000 0.0000000000 0.0000000000 0.0000000000 0.0000000000 0.0000000000 0.0000000000 0.0000000000 0.0000000000 0.0000000000 0.0000000000 0.0000000000 0.0000000000 0.0000000000 0.0000000000 0.0000000000 0.0000000000 0.0000000000 0.0000000000 0.0000000000 0.0000000000 0.0000000000 0.0000000000 0.0000000000 0.0000000000 0.0000000000 0.0000000000 0.0000000000 0.0000000000 0.0000000000 0.0000000000 0.0000000000 0.0000000000 0.0000000000 0.0000000000 0.0000000000 0.0000000000 0.0000000000 0.0000000000 0.0000000000 0.0000000000 0.0000000000 0.0000000000 0.0000000000 0.0000000000 0.0000000000 0.0000000000 0.0000000000 0.0000000000 0.0000000000 0.0000000000 0.0000000000 0.0000000000
        </DataArray>
        <DataArray type="Float32" Name="rolling spring" NumberOfComponents="3" format="ascii">
 0.0000000000 0.0000000000 0.0000000000 0.0000000000 0.0000000000 0.0000000000 0.0000000000 0.0000000000 0.0000000000 0.0000000000 0.0000000000 0.0000000000 0.0000000000 0.0000000000 0.0000000000 0.0000000000 0.0000000000 0.0000000000 0.0000000000 0.0000000000 0.0000000000 0.0000000000 0.0000000000 0.0000000000 0.0000000000 0.0000000000 0.0000000000 0.0000000000 0.0000000000 0.0000000000 0.0000000000 0.0000000000 0.0000000000 0.0000000000 0.0000000000 0.0000000000 0.0000000000 0.0000000000 0.0000000000 0.0000000000 0.0000000000 0.0000000000 0.0000000000 0.0000000000 0.0000000000 0.0000000000 0.0000000000 0.0000000000 0.0000000000 0.0000000000 0.0000000000 0.0000000000 0.0000000000 0.0000000000 0.0000000000 0.0000000000 0.0000000000 0.0000000000 0.0000000000 0.0000000000 0.0000000000 0.0000000000 0.0000000000 0.0000000000 0.0000000000 0.0000000000 0.0000000000 0.0000000000 0.0000000000 0.0000000000 0.0000000000 0.0000000000
        </DataArray>
        <DataArray type="Float32" Name="torsion spring" NumberOfComponents="3" format="ascii">
 0.0000000000 0.0000000000 0.0000000000 0.0000000000 0.0000000000 0.0000000000 0.0000000000 0.0000000000 0.0000000000 0.0000000000 0.0000000000 0.0000000000 0.0000000000 0.0000000000 0.0000000000 0.0000000000 0.0000000000 0.0000000000 0.0000000000 0.0000000000 0.0000000000 0.0000000000 0.0000000000 0.0000000000 0.0000000000 0.0000000000 0.0000000000 0.0000000000 0.0000000000 0.0000000000 0.0000000000 0.0000000000 0.0000000000 0.0000000000 0.0000000000 0.0000000000 0.0000000000 0.0000000000 0.0000000000 0.0000000000 0.0000000000 0.0000000000 0.0000000000 0.0000000000 0.0000000000 0.0000000000 0.0000000000 0.0000000000 0.0000000000 0.0000000000 0.0000000000 0.0000000000 0.0000000000 0.0000000000 0.0000000000 0.0000000000 0.0000000000 0.0000000000 0.0000000000 0.0000000000 0.0000000000 0.0000000000 0.0000000000 0.0000000000 0.0000000000 0.0000000000 0.0000000000 0.0000000000 0.0000000000 0.0000000000 0.0000000000 0.0000000000
        </DataArray>
      </PointData>
    </Piece>
  </UnstructuredGrid>
</VTKFile>
