<?xml version="1.0"?>
<VTKFile type="UnstructuredGrid" version="0.1" byte_order="LittleEndian">
  <UnstructuredGrid>
    <FieldData>
      <DataArray type="Float32" Name="TIME"  NumberOfTuples="1" format="ascii"> 3.3000000000 </DataArray>
      <DataArray type="Int32"   Name="STEP"  NumberOfTuples="1" format="ascii"> 825000 </DataArray>
    </FieldData>
    <Piece NumberOfPoints="11600" NumberOfCells="11600">
      <Points>
        <DataArray type="Float32" NumberOfComponents="3" format="ascii">
 -0.6069419435 -1.0346462158 -0.0000023652 -0.4070124120 -1.0293375778 -0.0000024199 -0.2070828813 -1.0240289410 -0.0000024552 -0.0071533557 -1.0187203091 -0.0000024664 0.1927761753 -1.0134116743 -0.0000023747 0.3927057050 -1.0081030387 -0.0000022583 0.5926352346 -1.0027944065 -0.0000021465 0.7925647661 -0.9974857779 -0.0000020554 0.9924942955 -0.9921771471 -0.0000019711 1.1924238283 -0.9868685144 -0.0000018909 1.3923533607 -0.9815598826 -0.0000017759 1.5922828960 -0.9762512586 -0.0000016365 1.7922124362 -0.9709426326 -0.0000015046 1.9921419809 -0.9656339894 -0.0000013942 2.1920715190 -0.9603253277 -0.0000013659 2.3920010568 -0.9550166576 -0.0000013587 2.5919305913 -0.9497079853 -0.0000013448 2.7918601232 -0.9443993170 -0.0000013015 2.9917896530 -0.9390906534 -0.0000011952 3.1917191827 -0.9337819899 -0.0000010921 3.3916487088 -0.9284733314 -0.0000010136 3.5915782321 -0.9231646793 -0.0000009694 3.7915077546 -0.9178560328 -0.0000009564 3.9914372679 -0.9125473911 -0.0000009862 4.1913667930 -0.9072387485 -0.0000010068 4.3912963161 -0.9019301054 -0.0000010354 4.5912258387 -0.8966214674 -0.0000010727 4.7911553642 -0.8913128334 -0.0000011107 4.9910848882 -0.8860041979 -0.0000011247 5.1910144179 -0.8806955580 -0.0000011098 5.3909439465 -0.8753869175 -0.0000010951 5.5908734724 -0.8700782822 -0.0000010879 5.7908029971 -0.8647696492 -0.0000010865 5.9907325079 -0.8594610118 -0.0000010877 6.1906620271 -0.8541523736 -0.0000010731 6.3905915452 -0.8488437302 -0.0000010505 6.5905210673 -0.8435350886 -0.0000010260 6.7904505945 -0.8382264500 -0.0000010043 6.9903801222 -0.8329178133 -0.0000009934 7.1903096531 -0.8276091753 -0.0000009478 7.3902391818 -0.8223005386 -0.0000008835 7.5901687083 -0.8169919075 -0.0000008068 7.7900982341 -0.8116832822 -0.0000007331 7.9900277513 -0.8063746658 -0.0000006906 8.1899572755 -0.8010660538 -0.0000007115 8.3898867977 -0.7957574480 -0.0000007753 8.5898163192 -0.7904488451 -0.0000008661 8.7897458406 -0.7851402469 -0.0000009517 8.9896753513 -0.7798316589 -0.0000009923 9.1896048743 -0.7745230793 -0.0000010130 9.3895343984 -0.7692145162 -0.0000010406 9.5894639277 -0.7639059630 -0.0000010766 9.7893934619 -0.7585974038 -0.0000011115 9.9893230035 -0.7532888395 -0.0000011184 10.1892525418 -0.7479802622 -0.0000010782 10.3891820804 -0.7426716853 -0.0000010404 10.5891116328 -0.7373631156 -0.0000010358 10.7890411940 -0.7320545397 -0.0000010632 10.9889708739 -0.7267459338 -0.0000011145 11.1889004376 -0.7214373097 -0.0000011179 11.3888300054 -0.7161286886 -0.0000010977 11.5887595709 -0.7108200602 -0.0000010600 11.7886891292 -0.7055114411 -0.0000010207 11.9886187886 -0.7002028022 -0.0000009624 12.1885483385 -0.6948941455 -0.0000009759 12.3884779684 -0.6895854843 -0.0000010610 12.5884075190 -0.6842768056 -0.0000011191 12.7883370674 -0.6789681324 -0.0000011435 12.9882666563 -0.6736594384 -0.0000010781 13.1881961982 -0.6683507359 -0.0000010078 13.3881257728 -0.6630420074 -0.0000008983 13.6463551778 -0.6425867081 0.0000000000 13.8463529165 -0.6435376364 0.0000000000 14.0463506551 -0.6444885644 0.0000000000 14.2463483964 -0.6454394919 0.0000000000 14.4463461351 -0.6463904203 0.0000000000 14.6463438750 -0.6473413479 0.0000000000 14.8463416148 -0.6482922762 0.0000000000 15.0463393537 -0.6492432041 0.0000000000 15.2463370944 -0.6501941321 0.0000000000 15.4463348334 -0.6511450603 0.0000000000 15.6463325735 -0.6520959883 0.0000000000 15.8463303133 -0.6530469159 0.0000000000 16.1504831514 -0.4844561295 0.0000015082 16.3503627184 -0.4775163466 0.0000021278 16.5502423402 -0.4705765802 0.0000004625 16.7501218988 -0.4636368310 -0.0000000762 16.9500014310 -0.4566971115 0.0000017158 17.1498809621 -0.4497574269 0.0000005090 17.3497605120 -0.4428177932 0.0000010604 17.5496400896 -0.4358782006 0.0000014762 17.7495196977 -0.4289385940 0.0000014278 17.9493993250 -0.4219989727 -0.0000012244 18.1492789687 -0.4150593044 0.0000002612 18.3491586022 -0.4081196113 0.0000005995 18.5490384209 -0.4011798582 0.0000006712 18.7489180071 -0.3942400892 -0.0000010368 18.9487975848 -0.3873003366 0.0000009036 19.1486771517 -0.3803605932 -0.0000002761 19.3485567192 -0.3734208561 0.0000000222 -0.5115745942 -0.8588478439 -0.0000023549 -0.3116450631 -0.8535392051 -0.0000023855 -0.1117155325 -0.8482305694 -0.0000023864 0.0882139973 -0.8429219364 -0.0000023224 0.2881435267 -0.8376133009 -0.0000022158 0.4880730573 -0.8323046667 -0.0000021053 0.6880025883 -0.8269960359 -0.0000020135 0.8879321199 -0.8216874066 -0.0000019440 1.0878616522 -0.8163787756 -0.0000018815 1.2877911850 -0.8110701440 -0.0000018015 1.4877207207 -0.8057615161 -0.0000016979 1.6876502559 -0.8004528913 -0.0000015896 1.8875797889 -0.7951442538 -0.0000014970 2.0875093208 -0.7898356015 -0.0000014450 2.2874388524 -0.7845269380 -0.0000014224 2.4873683859 -0.7792182669 -0.0000014047 2.6872979190 -0.7739095958 -0.0000013688 2.8872274526 -0.7686009302 -0.0000012984 3.0871569848 -0.7632922662 -0.0000011989 3.2870865152 -0.7579836052 -0.0000011080 3.4870160437 -0.7526749491 -0.0000010431 3.6869455694 -0.7473662991 -0.0000010041 3.8868750923 -0.7420576538 -0.0000009867 4.0868046148 -0.7367490131 -0.0000009864 4.2867341383 -0.7314403698 -0.0000009974 4.4866636624 -0.7261317299 -0.0000010242 4.6865931874 -0.7208230937 -0.0000010621 4.8865227128 -0.7155144591 -0.0000010929 5.0864522392 -0.7102058216 -0.0000010951 5.2863817665 -0.7048971822 -0.0000010832 5.4863112941 -0.6995885440 -0.0000010730 5.6862408182 -0.6942799086 -0.0000010698 5.8861703364 -0.6889712715 -0.0000010676 6.0860998522 -0.6836626340 -0.0000010555 6.2860293697 -0.6783539946 -0.0000010312 6.4859588916 -0.6730453540 -0.0000010008 6.6858884177 -0.6677367146 -0.0000009727 6.8858179468 -0.6624280767 -0.0000009482 7.0857474774 -0.6571194385 -0.0000009134 7.2856770079 -0.6518108006 -0.0000008619 7.4856065380 -0.6465021662 -0.0000007970 7.6855360668 -0.6411935377 -0.0000007280 7.8854655943 -0.6358849152 -0.0000006728 8.0853951211 -0.6305763013 -0.0000006611 8.2853246473 -0.6252676918 -0.0000006931 8.4852541723 -0.6199590869 -0.0000007603 8.6851836961 -0.6146504863 -0.0000008416 8.8851132200 -0.6093418927 -0.0000009113 9.0850427461 -0.6040333104 -0.0000009554 9.2849722752 -0.5987247387 -0.0000009921 9.4849018060 -0.5934161803 -0.0000010291 9.6848313381 -0.5881076246 -0.0000010623 9.8847608719 -0.5827990640 -0.0000010777 10.0846904086 -0.5774904931 -0.0000010552 10.2846199487 -0.5721819194 -0.0000010162 10.4845494986 -0.5668733486 -0.0000009925 10.6844790618 -0.5615647765 -0.0000009984 10.8844086517 -0.5562561940 -0.0000010254 11.0843382438 -0.5509475739 -0.0000010483 11.2842678180 -0.5456389522 -0.0000010545 11.4841973870 -0.5403303269 -0.0000010479 11.6841269591 -0.5350217009 -0.0000010354 11.8840565462 -0.5297130793 -0.0000010252 12.0839861317 -0.5244044262 -0.0000010338 12.2839157135 -0.5190957716 -0.0000010706 12.4838452890 -0.5137870973 -0.0000011214 12.6837748476 -0.5084784215 -0.0000011499 12.8837044049 -0.5031697399 -0.0000011386 13.0836339556 -0.4978610405 -0.0000010903 13.2835634959 -0.4925523350 -0.0000010297 13.5471798336 -0.4689081242 0.0000000000 13.7471775742 -0.4698590505 0.0000000000 13.9471753139 -0.4708099783 0.0000000000 14.1471730535 -0.4717609068 0.0000000000 14.3471707932 -0.4727118346 0.0000000000 14.5471685329 -0.4736627628 0.0000000000 14.7471662723 -0.4746136909 0.0000000000 14.9471640118 -0.4755646187 0.0000000000 15.1471617519 -0.4765155472 0.0000000000 15.3471594914 -0.4774664747 0.0000000000 15.5471572313 -0.4784174025 0.0000000000 15.7471549683 -0.4793683327 0.0000000000 16.0445333327 -0.3148252572 0.0000017556 16.2444129082 -0.3078854626 0.0000002910 16.4442925066 -0.3009456895 0.0000023941 16.6441721066 -0.2940059295 0.0000003142 16.8440516809 -0.2870661906 0.0000034183 17.0439312393 -0.2801264859 0.0000000764 17.2438108095 -0.2731868270 -0.0000007545 17.4436903986 -0.2662472144 0.0000017117 17.6435699993 -0.2593076208 -0.0000006356 17.8434496081 -0.2523680098 0.0000015808 18.0433292302 -0.2454283684 -0.0000006722 18.2432088668 -0.2384886864 -0.0000002985 18.4430885326 -0.2315489736 -0.0000000794 18.6429681844 -0.2246091996 0.0000017914 18.8428477868 -0.2176694385 0.0000016842 19.0427273699 -0.2107296871 -0.0000009217 19.2426069431 -0.2037899468 -0.0000013629 19.4424865067 -0.1968502063 0.0000015095 -0.6161367807 -0.6883581109 -0.0000022984 -0.4162072479 -0.6830494694 -0.0000023171 -0.2162777139 -0.6777408308 -0.0000023180 -0.0163481841 -0.6724321955 -0.0000022704 0.1835813467 -0.6671235604 -0.0000021750 0.3835108771 -0.6618149254 -0.0000020681 0.5834404088 -0.6565062929 -0.0000019755 0.7833699416 -0.6511976624 -0.0000019070 0.9832994726 -0.6458890330 -0.0000018566 1.1832290064 -0.6405804029 -0.0000017987 1.3831585401 -0.6352717733 -0.0000017256 1.5830880726 -0.6299631448 -0.0000016446 1.7830176038 -0.6246545110 -0.0000015699 1.9829471302 -0.6193458646 -0.0000015144 2.1828766605 -0.6140372081 -0.0000014795 2.3828061895 -0.6087285434 -0.0000014524 2.5827357203 -0.6034198735 -0.0000014193 2.7826652539 -0.5981112065 -0.0000013680 2.9825947887 -0.5928025406 -0.0000012864 3.1825243217 -0.5874938787 -0.0000011983 3.3824538536 -0.5821852208 -0.0000011233 3.5823833841 -0.5768765676 -0.0000010663 3.7823129130 -0.5715679191 -0.0000010227 3.9822424362 -0.5662592756 -0.0000009918 4.1821719620 -0.5609506329 -0.0000009784 4.3821014875 -0.5556419914 -0.0000009864 4.5820310133 -0.5503333536 -0.0000010156 4.7819605398 -0.5450247191 -0.0000010511 4.9818900625 -0.5397160828 -0.0000010725 5.1818195896 -0.5344074444 -0.0000010667 5.3817491161
[...]
      <PointData Scalars="radius">
        <DataArray type="Float32" Name="radius" format="ascii">
 0.1000000000 0.1000000000 0.1000000000 0.1000000000 0.1000000000 0.1000000000 0.1000000000 0.1000000000 0.1000000000 0.1000000000 0.1000000000 0.1000000000 0.1000000000 0.1000000000 0.1000000000 0.1000000000 0.1000000000 0.1000000000 0.1000000000 0.1000000000 0.1000000000 0.1000000000 0.1000000000 0.1000000000 0.1000000000 0.1000000000 0.1000000000 0.1000000000 0.1000000000 0.1000000000 0.1000000000 0.1000000000 0.1000000000 0.1000000000 0.1000000000 0.1000000000 0.1000000000 0.1000000000 0.1000000000 0.1000000000 0.1000000000 0.1000000000 0.1000000000 0.1000000000 0.1000000000 0.1000000000 0.1000000000 0.1000000000 0.1000000000 0.1000000000 0.1000000000 0.1000000000 0.1000000000 0.1000000000 0.1000000000 0.1000000000 0.1000000000 0.1000000000 0.1000000000 0.1000000000 0.1000000000 0.1000000000 0.1000000000 0.1000000000 0.1000000000 0.1000000000 0.1000000000 0.1000000000 0.1000000000 0.1000000000 0.1000000000 0.1000000000 0.1000000000 0.1000000000 0.1000000000 0.1000000000 0.1000000000 0.1000000000 0.1000000000 0.1000000000 0.1000000000 0.1000000000 0.1000000000 0.1000000000 0.1000000000 0.1000000000 0.1000000000 0.1000000000 0.1000000000 0.1000000000 0.1000000000 0.1000000000 0.1000000000 0.1000000000 0.1000000000 0.1000000000 0.1000000000 0.1000000000 0.1000000000 0.1000000000 0.1000000000 0.1000000000 0.1000000000 0.1000000000 0.1000000000 0.1000000000 0.1000000000 0.1000000000 0.1000000000 0.1000000000 0.1000000000 0.1000000000 0.1000000000 0.1000000000 0.1000000000 0.1000000000 0.1000000000 0.1000000000 0.1000000000 0.1000000000 0.1000000000 0.1000000000 0.1000000000 0.1000000000 0.1000000000 0.1000000000 0.1000000000 0.1000000000 0.1000000000 0.1000000000 0.1000000000 0.1000000000 0.1000000000 0.1000000000 0.1000000000 0.1000000000 0.1000000000 0.1000000000 0.1000000000 0.1000000000 0.1000000000 0.1000000000 0.1000000000 0.1000000000 0.1000000000 0.1000000000 0.1000000000 0.1000000000 0.1000000000 0.1000000000 0.1000000000 0.1000000000 0.1000000000 0.1000000000 0.1000000000 0.1000000000 0.1000000000 0.1000000000 0.1000000000 0.1000000000 0.1000000000 0.1000000000 0.1000000000 0.1000000000 0.1000000000 0.1000000000 0.1000000000 0.1000000000 0.1000000000 0.1000000000 0.1000000000 0.1000000000 0.1000000000 0.1000000000 0.1000000000 0.1000000000 0.1000000000 0.1000000000 0.1000000000 0.1000000000 0.1000000000 0.1000000000 0.1000000000 0.1000000000 0.1000000000 0.1000000000 0.1000000000 0.1000000000 0.1000000000 0.1000000000 0.1000000000 0.1000000000 0.1000000000 0.1000000000 0.1000000000 0.1000000000 0.1000000000 0.1000000000 0.1000000000 0.1000000000 0.1000000000 0.1000000000 0.1000000000 0.1000000000 0.1000000000 0.1000000000 0.1000000000 0.1000000000 0.1000000000 0.1000000000 0.1000000000 0.1000000000 0.1000000000 0.1000000000 0.1000000000 0.1000000000 0.1000000000 0.1000000000 0.1000000000 0.1000000000 0.1000000000 0.1000000000 0.1000000000 0.1000000000 0.1000000000 0.1000000000 0.1000000000 0.1000000000 0.1000000000 0.1000000000 0.1000000000 0.1000000000 0.1000000000 0.1000000000 0.1000000000 0.1000000000 0.1000000000 0.1000000000 0.1000000000 0.1000000000 0.1000000000 0.1000000000 0.1000000000 0.1000000000 0.1000000000 0.1000000000 0.1000000000 0.1000000000 0.1000000000 0.1000000000 0.1000000000 0.1000000000 0.1000000000 0.1000000000 0.1000000000 0.1000000000 0.1000000000 0.1000000000 0.1000000000 0.1000000000 0.1000000000 0.1000000000 0.1000000000 0.1000000000 0.1000000000 0.1000000000 0.1000000000 0.1000000000 0.1000000000 0.1000000000 0.1000000000 0.1000000000 0.1000000000 0.1000000000 0.1000000000 0.1000000000 0.1000000000 0.1000000000 0.1000000000 0.1000000000 0.1000000000 0.1000000000 0.1000000000 0.1000000000 0.1000000000 0.1000000000 0.1000000000 0.1000000000 0.1000000000 0.1000000000 0.1000000000 0.1000000000 0.1000000000 0.1000000000 0.1000000000 0.1000000000 0.1000000000 0.1000000000 0.1000000000 0.1000000000 0.1000000000 0.1000000000 0.1000000000 0.1000000000 0.1000000000 0.1000000000 0.1000000000 0.1000000000 0.1000000000 0.1000000000 0.1000000000 0.1000000000 0.1000000000 0.1000000000 0.1000000000 0.1000000000 0.1000000000 0.1000000000 0.1000000000 0.1000000000 0.1000000000 0.1000000000 0.1000000000 0.1000000000 0.1000000000 0.1000000000 0.1000000000 0.1000000000 0.1000000000 0.1000000000 0.1000000000 0.1000000000 0.1000000000 0.1000000000 0.1000000000 0.1000000000 0.1000000000 0.1000000000 0.1000000000 0.1000000000 0.1000000000 0.1000000000 0.1000000000 0.1000000000 0.1000000000 0.1000000000 0.1000000000 0.1000000000 0.1000000000 0.1000000000 0.1000000000 0.1000000000 0.1000000000 0.1000000000 0.1000000000 0.1000000000 0.1000000000 0.1000000000 0.1000000000 0.1000000000 0.1000000000 0.1000000000 0.1000000000 0.1000000000 0.1000000000 0.1000000000 0.1000000000 0.1000000000 0.1000000000 0.1000000000 0.1000000000 0.1000000000 0.1000000000 0.1000000000 0.1000000000 0.1000000000 0.1000000000 0.1000000000 0.1000000000 0.1000000000 0.1000000000 0.1000000000 0.1000000000 0.1000000000 0.1000000000 0.1000000000 0.1000000000 0.1000000000 0.1000000000 0.1000000000 0.1000000000 0.1000000000 0.1000000000 0.1000000000 0.1000000000 0.1000000000 0.1000000000 0.1000000000 0.1000000000 0.1000000000 0.1000000000 0.1000000000 0.1000000000 0.1000000000 0.1000000000 0.1000000000 0.1000000000 0.1000000000 0.1000000000 0.1000000000 0.1000000000 0.1000000000 0.1000000000 0.1000000000 0.1000000000 0.1000000000 0.1000000000 0.1000000000 0.1000000000 0.1000000000 0.1000000000 0.1000000000 0.1000000000 0.1000000000 0.1000000000 0.1000000000 0.1000000000 0.1000000000 0.1000000000 0.1000000000 0.1000000000 0.1000000000 0.1000000000 0.1000000000 0.1000000000 0.1000000000 0.1000000000 0.1000000000 0.1000000000 0.1000000000 0.1000000000 0.1000000000 0.1000000000 0.1000000000 0.1000000000 0.1000000000 0.1000000000 0.1000000000 0.1000000000 0.1000000000 0.1000000000 0.1000000000 0.1000000000 0.1000000000 0.1000000000 0.1000000000 0.1000000000 0.1000000000 0.1000000000 0.1000000000 0.1000000000 0.1000000000 0.1000000000 0.1000000000 0.1000000000 0.1000000000 0.1000000000 0.1000000000 0.1000000000 0.1000000000 0.1000000000 0.1000000000 0.1000000000 0.1000000000 0.1000000000 0.1000000000 0.1000000000 0.1000000000 0.1000000000 0.1000000000 0.1000000000 0.1000000000 0.1000000000 0.1000000000 0.1000000000 0.1000000000 0.1000000000 0.1000000000 0.1000000000 0.1000000000 0.1000000000 0.1000000000 0.1000000000 0.1000000000 0.1000000000 0.1000000000 0.1000000000 0.1000000000 0.1000000000 0.1000000000 0.1000000000 0.1000000000 0.1000000000 0.1000000000 0.1000000000 0.1000000000 0.1000000000 0.1000000000 0.1000000000 0.1000000000 0.1000000000 0.1000000000 0.1000000000 0.1000000000 0.1000000000 0.1000000000 0.1000000000 0.1000000000 0.1000000000 0.1000000000 0.1000000000 0.1000000000 0.1000000000 0.1000000000 0.1000000000 0.1000000000 0.1000000000 0.1000000000 0.1000000000 0.1000000000 0.1000000000 0.1000000000 0.1000000000 0.1000000000 0.1000000000 0.1000000000 0.1000000000 0.1000000000 0.1000000000 0.1000000000 0.1000000000 0.1000000000 0.1000000000 0.1000000000 0.1000000000 0.1000000000 0.1000000000 0.1000000000 0.1000000000 0.1000000000 0.1000000000 0.1000000000 0.1000000000 0.1000000000 0.1000000000 0.1000000000 0.1000000000 0.1000000000 0.1000000000 0.1000000000 0.1000000000 0.1000000000 0.1000000000 0.1000000000 0.1000000000 0.1000000000 0.1000000000 0.1000000000 0.1000000000 0.1000000000 0.1000000000 0.1000000000 0.1000000000 0.1000000000 0.1000000000 0.1000000000 0.1000000000 0.1000000000 0.1000000000 0.1000000000 0.1000000000 0.1000000000 0.1000000000 0.1000000000 0.1000000000 0.1000000000 0.1000000000 0.1000000000 0.1000000000 0.1000000000 0.1000000000 0.1000000000 0.1000000000 0.1000000000 0.1000000000 0.1000000000 0.1000000000 0.1000000000 0.1000000000 0.1000000000 0.1000000000 0.1000000000 0.1000000000 0.1000000000 0.1000000000 0.1000000000 0.1000000000 0.1000000000 0.1000000000 0.1000000000 0.1000000000 0.1000000000 0.1000000000 0.1000000000 0.1000000000 0.1000000000 0.1000000000 0.1000000000 0.1000000000 0.1000000000 0.1000000000 0.1000000000 0.1000000000 0.1000000000 0.1000000000 0.1000000000 0.1000000000 0.1000000000 0.1000000000 0.1000000000 0.1000000000 0.1000000000 0.1000000000 0.1000000000 0.1000000000 0.1000000000 0.1000000000 0.1000000000 0.1000000000 0.1000000000 0.1000000000 0.1000000000 0.1000000000 0.1000000000 0.1000000000 0.1000000000 0.1000000000 0.1000000000 0.1000000000 0.1000000000 0.1000000000 0.1000000000 0.1000000000 0.1000000000 0.1000000000 0.1000000000 0.1000000000 0.1000000000 0.1000000000 0.1000000000 0.1000000000 0.1000000000 0.1000000000 0.1000000000 0.1000000000 0.1000000000 0.1000000000 0.1000000000 0.1000000000 0.1000000000 0.1000000000 0.1000000000 0.1000000000 0.1000000000 0.1000000000 0.1000000000 0.1000000000 0.1000000000 0.1000000000 0.1000000000 0.1000000000 0.1000000000 0.1000000000 0.1000000000 0.1000000000 0.1000000000 0.1000000000 0.1000000000 0.1000000000 0.1000000000 0.1000000000 0.1000000000 0.1000000000 0.1000000000 0.1000000000 0.1000000000 0.1000000000 0.1000000000 0.1000000000 0.1000000000 0.1000000000 0.1000000000 0.1000000000 0.1000000000 0.1000000000 0.1000000000 0.1000000000 0.1000000000 0.1000000000 0.1000000000 0.1000000000 0.1000000000 0.1000000000 0.1000000000 0.1000000000 0.1000000000 0.1000000000 0.1000000000 0.1000000000 0.1000000000 0.1000000000 0.1000000000 0.1000000000 0.1000000000 0.1000000000 0.1000000000 0.1000000000 0.1000000000 0.1000000000 0.1000000000 0.1000000000 0.1000000000 0.1000000000 0.1000000000 0.1000000000 0.1000000000 0.1000000000 0.1000000000 0.1000000000 0.1000000000 0.1000000000 0.1000000000 0.1000000000 0.1000000000 0.1000000000 0.1000000000 0.1000000000 0.1000000000 0.1000000000 0.1000000000 0.1000000000 0.1000000000 0.1000000000 0.1000000000 0.1000000000 0.1000000000 0.1000000000 0.1000000000 0.1000000000 0.1000000000 0.1000000000 0.1000000000 0.1000000000 0.1000000000 0.1000000000 0.1000000000 0.1000000000 0.1000000000 0.1000000000 0.1000000000 0.1000000000 0.1000000000 0.1000000000 0.1000000000 0.1000000000 0.1000000000 0.1000000000 0.1000000000 0.1000000000 0.1000000000 0.1000000000 0.1000000000 0.1000000000 0.1000000000 0.1000000000 0.1000000000 0.1000000000 0.1000000000 0.1000000000 0.1000000000 0.1000000000 0.1000000000 0.1000000000 0.1000000000 0.1000000000 0.1000000000 0.1000000000 0.1000000000 0.1000000000 0.1000000000 0.1000000000 0.1000000000 0.1000000000 0.1000000000 0.1000000000 0.1000000000 0.1000000000 0.1000000000 0.1000000000 0.1000000000 0.1000000000 0.1000000000 0.1000000000 0.1000000000 0.1000000000 0.1000000000 0.1000000000 0.1000000000 0.1000000000 0.1000000000 0.1000000000 0.1000000000 0.1000000000 0.1000000000 0.1000000000 0.1000000000 0.1000000000 0.1000000000 0.1000000000 0.1000000000 0.1000000000 0.1000000000 0.1000000000 0.1000000000 0.1000000000 0.1000000000 0.1000000000 0.1000000000 0.1000000000 0.1000000000 0.1000000000 0.1000000000 0.1000000000 0.1000000000 0.1000000000 0.1000000000 0.1000000000 0.1000000000 0.1000000000 0.1000000000 0.1000000000 0.1000000000 0.1000000000 0.1000000000 0.1000000000 0.1000000000 0.1000000000 0.1000000000 0.1000000000 0.1000000000 0.1000000000 0.1000000000 0.1000000000 0.1000000000 0.1000000000 0.1000000000 0.1000000000 0.1000000000 0.1000000000 0.1000000000 0.1000000000 0.1000000000 0.1000000000 0.1000000000 0.1000000000 0.1000000000 0.1000000000 0.1000000000 0.1000000000 0.1000000000 0.1000000000 0.1000000000 0.1000000000 0.1000000000 0.1000000000 0.1000000000 0.1000000000 0.1000000000 0.1000000000 0.1000000000 0.1000000000 0.1000000000 0.1000000000 0.1000000000 0.1000000000 0.1000000000 0.1000000000 0.1000000000 0.1000000000 0.1000000000 0.1000000000 0.1000000000 0.1000000000 0.1000000000 0.1000000000 0.1000000000 0.1000000000 0.1000000000 0.1000000000 0.1000000000 0.1000000000 0.1000000000 0.1000000000 0.1000000000 0.1000000000 0.1000000000 0.1000000000 0.1000000000 0.1000000000 0.1000000000 0.1000000000 0.1000000000 0.1000000000 0.1000000000 0.1000000000 0.1000000000 0.1000000000 0.1000000000 0.1000000000 0.1000000000 0.1000000000 0.1000000000 0.1000000000 0.1000000000 0.1000000000 0.1000000000 0.1000000000 0.1000000000 0.1000000000 0.1000000000 0.1000000000 0.1000000000 0.1000000000 0.1000000000 0.1000000000 0.1000000000 0.1000000000 0.1000000000 0.1000000000 0.1000000000 0.1000000000 0.1000000000 0.1000000000 0.1000000000 0.1000000000 0.1000000000 0.1000000000 0.1000000000 0.1000000000 0.1000000000 0.1000000000 0.1000000000 0.1000000000 0.1000000000 0.1000000000 0.1000000000 0.1000000000 0.1000000000 0.1000000000 0.1000000000 0.1000000000 0.1000000000 0.1000000000 0.1000000000 0.1000000000 0.1000000000 0.1000000000 0.1000000000 0.1000000000 0.1000000000 0.1000000000 0.1000000000 0.1000000000 0.1000000000 0.1000000000 0.1000000000 0.1000000000 0.1000000000 0.1000000000 0.1000000000 0.1000000000 0.1000000000 0.1000000000 0.1000000000 0.1000000000 0.1000000000 0.1000000000 0.1000000000 0.1000000000 0.1000000000 0.1000000000 0.1000000000 0.1000000000 0.1000000000 0.1000000000 0.1000000000 0.1000000000 0.1000000000 0.1000000000 0.1000000000 0.1000000000 0.1000000000 0.1000000000 0.1000000000 0.1000000000 0.1000000000 0.1000000000 0.1000000000 0.1000000000 0.1000000000 0.1000000000 0.1000000000 0.1000000000 0.1000000000 0.1000000000 0.1000000000 0.1000000000 0.1000000000 0.1000000000 0.1000000000 0.1000000000 0.1000000000 0.1000000000 0.1000000000 0.1000000000 0.1000000000 0.1000000000 0.1000000000 0.1000000000 0.1000000000 0.1000000000 0.1000000000 0.1000000000 0.1000000000 0.1000000000 0.1000000000 0.1000000000 0.1000000000 0.1000000000 0.1000000000 0.1000000000 0.1000000000 0.1000000000 0.1000000000 0.1000000000 0.1000000000 0.1000000000 0.1000000000 0.1000000000 0.1000000000 0.1000000000 0.1000000000 0.1000000000 0.1000000000 0.1000000000 0.1000000000 0.1000000000 0.1000000000 0.1000000000 0.1000000000 0.1000000000 0.1000000000 0.1000000000 0.1000000000 0.1000000000 0.1000000000 0.1000000000 0.1000000000 0.1000000000 0.1000000000 0.1000000000 0.1000000000 0.1000000000 0.1000000000 0.1000000000 0.1000000000 0.1000000000 0.1000000000 0.1000000000 0.1000000000 0.1000000000 0.1000000000 0.1000000000 0.1000000000 0.1000000000 0.1000000000 0.1000000000 0.1000000000 0.1000000000 0.1000000000 0.1000000000 0.1000000000 0.1000000000 0.1000000000 0.1000000000 0.1000000000 0.1000000000 0.1000000000 0.1000000000 0.1000000000 0.1000000000 0.1000000000 0.1000000000 0.1000000000 0.1000000000 0.1000000000 0.1000000000 0.1000000000 0.1000000000 0.1000000000 0.1000000000 0.1000000000 0.1000000000 0.1000000000 0.1000000000 0.1000000000 0.1000000000 0.1000000000 0.1000000000 0.1000000000 0.1000000000 0.1000000000 0.1000000000 0.1000000000 0.1000000000 0.1000000000 0.1000000000 0.1000000000 0.1000000000 0.1000000000 0.1000000000 0.1000000000 0.1000000000 0.1000000000 0.1000000000 0.1000000000 0.1000000000 0.1000000000 0.1000000000 0.1000000000 0.1000000000 0.1000000000 0.1000000000 0.1000000000 0.1000000000 0.1000000000 0.1000000000 0.1000000000 0.1000000000 0.1000000000 0.1000000000 0.1000000000 0.1000000000 0.1000000000 0.1000000000 0.1000000000 0.1000000000 0.1000000000 0.1000000000 0.1000000000 0.1000000000 0.1000000000 0.1000000000 0.1000000000 0.1000000000 0.1000000000 0.1000000000 0.1000000000 0.1000000000 0.1000000000 0.1000000000 0.1000000000 0.1000000000 0.1000000000 0.1000000000 0.1000000000 0.1000000000 0.1000000000 0.1000000000 0.1000000000 0.1000000000 0.1000000000 0.1000000000 0.1000000000 0.1000000000 0.1000000000 0.1000000000 0.1000000000 0.1000000000 0.1000000000 0.1000000000 0.1000000000 0.1000000000 0.1000000000 0.1000000000 0.1000000000 0.1000000000 0.1000000000 0.1000000000 0.1000000000 0.1000000000 0.1000000000 0.1000000000 0.1000000000 0.1000000000 0.1000000000 0.1000000000 0.1000000000 0.1000000000 0.1000000000 0.1000000000 0.1000000000 0.1000000000 0.1000000000 0.1000000000 0.1000000000 0.1000000000 0.1000000000 0.1000000000 0.1000000000 0.1000000000 0.1000000000 0.1000000000 0.1000000000 0.1000000000 0.1000000000 0.1000000000 0.1000000000 0.1000000000 0.1000000000 0.1000000000 0.1000000000 0.1000000000 0.1000000000 0.1000000000 0.1000000000 0.1000000000 0.1000000000 0.1000000000 0.1000000000 0.1000000000 0.1000000000 0.1000000000 0.1000000000 0.1000000000 0.1000000000 0.1000000000 0.1000000000 0.1000000000 0.1000000000 0.1000000000 0.1000000000 0.1000000000 0.1000000000 0.1000000000 0.1000000000 0.1000000000 0.1000000000 0.1000000000 0.1000000000 0.1000000000 0.1000000000 0.1000000000 0.1000000000 0.1000000000 0.1000000000 0.1000000000 0.1000000000 0.1000000000 0.1000000000 0.1000000000 0.1000000000 0.1000000000 0.1000000000 0.1000000000 0.1000000000 0.1000000000 0.1000000000 0.1000000000 0.1000000000 0.1000000000 0.1000000000 0.1000000000 0.1000000000 0.1000000000 0.1000000000 0.1000000000 0.1000000000 0.1000000000 0.1000000000 0.1000000000 0.1000000000 0.1000000000 0.1000000000 0.1000000000 0.1000000000 0.1000000000 0.1000000000 0.1000000000 0.1000000000 0.1000000000 0.1000000000 0.1000000000 0.1000000000 0.1000000000 0.1000000000 0.1000000000 0.1000000000 0.1000000000 0.1000000000 0.1000000000 0.1000000000 0.1000000000 0.1000000000 0.1000000000 0.1000000000 0.1000000000 0.1000000000 0.1000000000 0.1000000000 0.1000000000 0.1000000000 0.1000000000 0.1000000000 0.1000000000 0.1000000000 0.1000000000 0.1000000000 0.1000000000 0.1000000000 0.1000000000 0.1000000000 0.1000000000 0.1000000000 0.1000000000 0.1000000000 0.1000000000 0.1000000000 0.1000000000 0.1000000000 0.1000000000 0.1000000000 0.1000000000 0.1000000000 0.1000000000 0.1000000000 0.1000000000 0.1000000000 0.1000000000 0.1000000000 0.1000000000 0.1000000000 0.1000000000 0.1000000000 0.1000000000 0.1000000000 0.1000000000 0.1000000000 0.1000000000 0.1000000000 0.1000000000 0.1000000000 0.1000000000 0.1000000000 0.1000000000 0.1000000000 0.1000000000 0.1000000000 0.1000000000 0.1000000000 0.1000000000 0.1000000000 0.1000000000 0.1000000000 0.1000000000 0.1000000000 0.1000000000 0.1000000000 0.1000000000 0.1000000000 0.1000000000 0.1000000000 0.1000000000 0.1000000000 0.1000000000 0.1000000000 0.1000000000 0.1000000000 0.1000000000 0.1000000000 0.1000000000 0.1000000000 0.1000000000 0.1000000000 0.1000000000 0.1000000000 0.1000000000 0.1000000000 0.1000000000 0.1000000000 0.1000000000 0.1000000000 0.1000000000 0.1000000000 0.1000000000 0.1000000000 0.1000000000 0.1000000000 0.1000000000 0.1000000000 0.1000000000 0.1000000000 0.1000000000 0.1000000000 0.1000000000 0.1000000000 0.1000000000 0.1000000000 0.1000000000 0.1000000000 0.1000000000 0.1000000000 0.1000000000 0.1000000000 0.1000000000 0.1000000000 0.1000000000 0.1000000000 0.1000000000 0.1000000000 0.1000000000 0.1000000000 0.1000000000 0.1000000000 0.1000000000 0.1000000000 0.1000000000 0.1000000000 0.1000000000 0.1000000000 0.1000000000 0.1000000000 0.1000000000 0.1000000000 0.1000000000 0.1000000000 0.1000000000 0.1000000000 0.1000000000 0.1000000000 0.1000000000 0.1000000000 0.1000000000 0.1000000000 0.1000000000 0.1000000000 0.1000000000 0.1000000000 0.1000000000 0.1000000000 0.1000000000 0.1000000000 0.1000000000 0.1000000000 0.1000000000 0.1000000000 0.1000000000 0.1000000000 0.1000000000 0.1000000000 0.1000000000 0.1000000000 0.1000000000 0.1000000000 0.1000000000 0.1000000000 0.1000000000 0.1000000000 0.1000000000 0.1000000000 0.1000000000 0.1000000000 0.1000000000 0.1000000000 0.1000000000 0.1000000000 0.1000000000 0.1000000000 0.1000000000 0.1000000000 0.1000000000 0.1000000000 0.1000000000 0.1000000000 0.1000000000 0.1000000000 0.1000000000 0.1000000000 0.1000000000 0.1000000000 0.1000000000 0.1000000000 0.1000000000 0.1000000000 0.1000000000 0.1000000000 0.1000000000 0.1000000000 0.1000000000 0.1000000000 0.1000000000 0.1000000000 0.1000000000 0.1000000000 0.1000000000 0.1000000000 0.1000000000 0.1000000000 0.1000000000 0.1000000000 0.10000000