<?xml version="1.0"?>
<VTKFile type="UnstructuredGrid" version="0.1" byte_order="LittleEndian">
  <UnstructuredGrid>
    <FieldData>
      <DataArray type="Float32" Name="TIME"  NumberOfTuples="1" format="ascii"> 0.4000000000 </DataArray>
      <DataArray type="Int32"   Name="STEP"  NumberOfTuples="1" format="ascii"> 100000 </DataArray>
    </FieldData>
    <Piece NumberOfPoints="11600" NumberOfCells="11600">
      <Points>
        <DataArray type="Float32" NumberOfComponents="3" format="ascii">
 -0.0649960979 -0.1471790565 0.0000000000 0.1350013001 -0.1461600607 0.0000000000 0.3349987012 -0.1451411511 0.0000000000 0.5349963444 -0.1441222580 0.0000000000 0.7349938120 -0.1431032948 0.0000000000 0.9349912588 -0.1420843084 0.0000000000 1.1349886870 -0.1410653713 0.0000000000 1.3349860971 -0.1400465088 0.0000000000 1.5349836791 -0.1390277027 0.0000000000 1.7349811374 -0.1380088948 0.0000000000 1.9349786085 -0.1369901151 0.0000000000 2.1349760986 -0.1359713087 0.0000000000 2.3349735765 -0.1349524100 0.0000000000 2.5349711902 -0.1339333945 0.0000000000 2.7349686905 -0.1329142778 0.0000000000 2.9349662137 -0.1318950695 0.0000000000 3.1349637238 -0.1308757969 0.0000000000 3.3349612278 -0.1298565408 0.0000000000 3.5349590788 -0.1288371940 0.0000000000 3.7349566017 -0.1278177731 0.0000000000 3.9349541579 -0.1267983209 0.0000000000 4.1349517049 -0.1257788906 0.0000000000 4.3349492352 -0.1247594938 0.0000000000 4.5349471992 -0.1237399933 0.0000000000 4.7349446773 -0.1227204929 0.0000000000 4.9349422018 -0.1217010745 0.0000000000 5.1349397754 -0.1206816833 0.0000000000 5.3349373448 -0.1196622782 0.0000000000 5.5349353265 -0.1186429231 0.0000000000 5.7349328730 -0.1176236674 0.0000000000 5.9349304810 -0.1166044218 0.0000000000 6.1349281170 -0.1155851205 0.0000000000 6.3349257151 -0.1145658688 0.0000000000 6.5349243348 -0.1135465379 0.0000000000 6.7349219601 -0.1125270151 0.0000000000 6.9349196028 -0.1115075542 0.0000000000 7.1349172200 -0.1104881500 0.0000000000 7.3349147851 -0.1094688436 0.0000000000 7.5349131221 -0.1084494996 0.0000000000 7.7349107559 -0.1074300332 0.0000000000 7.9349084352 -0.1064105719 0.0000000000 8.1349060891 -0.1053910894 0.0000000000 8.3349036679 -0.1043716359 0.0000000000 8.5349016856 -0.1033522416 0.0000000000 8.7348992263 -0.1023328553 0.0000000000 8.9348968260 -0.1013135657 0.0000000000 9.1348944831 -0.1002943077 0.0000000000 9.3348921490 -0.0992750410 0.0000000000 9.5348910442 -0.0982555316 0.0000000000 9.7348887297 -0.0972359074 0.0000000000 9.9348865013 -0.0962163053 0.0000000000 10.1348842668 -0.0951966566 0.0000000000 10.3348819806 -0.0941770693 0.0000000000 10.5348811056 -0.0931571986 0.0000000000 10.7348788054 -0.0921371200 0.0000000000 10.9348765625 -0.0911171741 0.0000000000 11.1348743044 -0.0900973033 0.0000000000 11.3348719761 -0.0890775187 0.0000000000 11.5348704992 -0.0880576381 0.0000000000 11.7348680744 -0.0870376368 0.0000000000 11.9348656836 -0.0860176543 0.0000000000 12.1348632573 -0.0849976211 0.0000000000 12.3348607710 -0.0839776690 0.0000000000 12.5348586830 -0.0829577322 0.0000000000 12.7348561476 -0.0819376343 0.0000000000 12.9348536505 -0.0809175628 0.0000000000 13.1348510711 -0.0798975491 0.0000000000 13.3348485118 -0.0788775599 0.0000000000 13.5348463775 -0.0778574294 0.0000000000 13.7348438350 -0.0768370367 0.0000000000 13.9348417031 -0.0758163955 0.0000000000 14.1358067030 -0.0754002515 0.0000000000 14.3358066932 -0.0753560097 0.0000000000 14.5358066731 -0.0753117689 0.0000000000 14.7358066585 -0.0752675321 0.0000000000 14.9358066288 -0.0752233054 0.0000000000 15.1358066099 -0.0751790885 0.0000000000 15.3358065913 -0.0751348792 0.0000000000 15.5358065628 -0.0750906788 0.0000000000 15.7358065474 -0.0750464874 0.0000000000 15.9358065248 -0.0750023052 0.0000000000 16.1358065134 -0.0749581329 0.0000000000 16.3358065054 -0.0749139677 0.0000000000 16.5480390376 -0.0588768625 0.0000000000 16.7480375877 -0.0581087367 0.0000000000 16.9480364032 -0.0573405271 0.0000000000 17.1480350050 -0.0565722335 0.0000000000 17.3480336415 -0.0558038663 0.0000000000 17.5480322928 -0.0550354384 0.0000000000 17.7480309268 -0.0542669765 0.0000000000 17.9480299639 -0.0534983670 0.0000000000 18.1480285500 -0.0527297274 0.0000000000 18.3480271144 -0.0519611265 0.0000000000 18.5480256750 -0.0511925451 0.0000000000 18.7480242318 -0.0504239851 0.0000000000 18.9480231248 -0.0496553419 0.0000000000 19.1480217271 -0.0488866174 0.0000000000 19.3480203495 -0.0481178854 0.0000000000 19.5480189739 -0.0473491003 0.0000000000 19.7480175656 -0.0465802481 0.0000000000 0.0341201612 0.0265332697 0.0000000000 0.2341176026 0.0275522224 0.0000000000 0.4341150933 0.0285711134 0.0000000000 0.6341125964 0.0295900484 0.0000000000 0.8341100746 0.0306090244 0.0000000000 1.0341075494 0.0316279906 0.0000000000 1.2341050220 0.0326469015 0.0000000000 1.4341025172 0.0336657326 0.0000000000 1.6341000190 0.0346845387 0.0000000000 1.8340975044 0.0357033257 0.0000000000 2.0340949700 0.0367221182 0.0000000000 2.2340924276 0.0377409871 0.0000000000 2.4340898908 0.0387599579 0.0000000000 2.6340873672 0.0397790298 0.0000000000 2.8340848422 0.0407981767 0.0000000000 3.0340823224 0.0418174082 0.0000000000 3.2340798339 0.0428366630 0.0000000000 3.4340774199 0.0438559276 0.0000000000 3.6340750124 0.0448753208 0.0000000000 3.8340725703 0.0458947628 0.0000000000 4.0340701351 0.0469141946 0.0000000000 4.2340677126 0.0479336003 0.0000000000 4.4340653573 0.0489530209 0.0000000000 4.6340629934 0.0499725422 0.0000000000 4.8340605584 0.0509919809 0.0000000000 5.0340581464 0.0520113688 0.0000000000 5.2340557756 0.0530307661 0.0000000000 5.4340535071 0.0540501358 0.0000000000 5.6340512560 0.0550694532 0.0000000000 5.8340489175 0.0560887230 0.0000000000 6.0340465736 0.0571080026 0.0000000000 6.2340442912 0.0581272968 0.0000000000 6.4340421986 0.0591465543 0.0000000000 6.6340401054 0.0601660183 0.0000000000 6.8340378679 0.0611854932 0.0000000000 7.0340355885 0.0622049249 0.0000000000 7.2340333062 0.0632242950 0.0000000000 7.4340311342 0.0642435898 0.0000000000 7.6340289654 0.0652630195 0.0000000000 7.8340266844 0.0662824654 0.0000000000 8.0340243690 0.0673019378 0.0000000000 8.2340220459 0.0683214134 0.0000000000 8.4340198094 0.0693408360 0.0000000000 8.6340175682 0.0703602296 0.0000000000 8.8340152445 0.0713795644 0.0000000000 9.0340129430 0.0723988394 0.0000000000 9.2340107157 0.0734181142 0.0000000000 9.4340087119 0.0744374393 0.0000000000 9.6340067362 0.0754570642 0.0000000000 9.8340045795 0.0764766515 0.0000000000 10.0340024045 0.0774962790 0.0000000000 10.2340002718 0.0785159120 0.0000000000 10.4339983586 0.0795355629 0.0000000000 10.6339964579 0.0805555891 0.0000000000 10.8339943645 0.0815755805 0.0000000000 11.0339922075 0.0825954923 0.0000000000 11.2339900304 0.0836153406 0.0000000000 11.4339879587 0.0846351528 0.0000000000 11.6339858408 0.0856551478 0.0000000000 11.8339835227 0.0866751333 0.0000000000 12.0339811360 0.0876951540 0.0000000000 12.2339787259 0.0887151487 0.0000000000 12.4339763615 0.0897350889 0.0000000000 12.6339739614 0.0907551218 0.0000000000 12.8339714915 0.0917752051 0.0000000000 13.0339689861 0.0927952491 0.0000000000 13.2339664429 0.0938152590 0.0000000000 13.4339639226 0.0948352883 0.0000000000 13.6339614095 0.0958555524 0.0000000000 13.8339588833 0.0968759496 0.0000000000 14.0357683954 0.0977827019 0.0000000000 14.2357683874 0.0978269458 0.0000000000 14.4357683756 0.0978711898 0.0000000000 14.6357683612 0.0979154286 0.0000000000 14.8357683452 0.0979596615 0.0000000000 15.0357683288 0.0980038822 0.0000000000 15.2357683134 0.0980480951 0.0000000000 15.4357682978 0.0980923010 0.0000000000 15.6357682839 0.0981364952 0.0000000000 15.8357682715 0.0981806827 0.0000000000 16.0357682623 0.0982248596 0.0000000000 16.2357682536 0.0982690262 0.0000000000 16.4473745728 0.1139428930 0.0000000000 16.6473731214 0.1147110108 0.0000000000 16.8473717147 0.1154791625 0.0000000000 17.0473703249 0.1162474285 0.0000000000 17.2473689214 0.1170157571 0.0000000000 17.4473675395 0.1177841501 0.0000000000 17.6473661788 0.1185525943 0.0000000000 17.8473648781 0.1193210988 0.0000000000 18.0473635694 0.1200897446 0.0000000000 18.2473621882 0.1208583698 0.0000000000 18.4473607728 0.1216269632 0.0000000000 18.6473593588 0.1223955359 0.0000000000 18.8473579901 0.1231641168 0.0000000000 19.0473566290 0.1239328154 0.0000000000 19.2473552400 0.1247015322 0.0000000000 19.4473538386 0.1254702845 0.0000000000 19.6473524238 0.1262390995 0.0000000000 19.8473509943 0.1270079647 0.0000000000 -0.0667609972 0.1992265923 0.0000000000 0.1332364293 0.2002455718 0.0000000000 0.3332338806 0.2012645043 0.0000000000 0.5332314173 0.2022834167 0.0000000000 0.7332288744 0.2033023720 0.0000000000 0.9332263542 0.2043213379 0.0000000000 1.1332238478 0.2053402793 0.0000000000 1.3332213324 0.2063591683 0.0000000000 1.5332189072 0.2073779750 0.0000000000 1.7332163714 0.2083967720 0.0000000000 1.9332138186 0.2094155794 0.0000000000 2.1332112439 0.2104344272 0.0000000000 2.3332086646 0.2114533695 0.0000000000 2.5332061359 0.2124723997 0.0000000000 2.7332035648 0.2134914982 0.0000000000 2.9332010003 0.2145106699 0.0000000000 3.1331984536 0.2155298911 0.0000000000 3.3331959234 0.2165491232 0.0000000000 3.5331935336 0.2175684506 0.0000000000 3.7331910445 0.2185878502 0.0000000000 3.9331885898 0.2196072779 0.0000000000 4.1331861393 0.2206266797 0.0000000000 4.3331836797 0.2216460689 0.0000000000 4.5331813739 0.2226655558 0.0000000000 4.7331789132 0.2236850023 0.0000000000 4.9331764950 0.2247043961 0.0000000000 5.1331741068 0.2257237781 0.0000000000 5.3331717222 0.2267431643 0.0000000000 5.5331696107 0.2277624788 0.0000000000 5.7331672823 0.2287818075 0.0000000000 5.9331649503 0.2298011087 0.0000000000 6.1331626221 0.2308204138 0.0000000000 6.3331602939 0.2318397333 0.0000000000 6.5331584035 0.2328590705 0.0000000000 6.7331561088 0.2338785176 0.0000000000 6.9331538571 0.2348979589 0.0000000000 7.1331516038 0.2359173681 0.0000000000 7.3331492929 0.2369367320 0.0000000000 7.5331473070 0.
[...]
      <PointData Scalars="radius">
        <DataArray type="Float32" Name="radius" format="ascii">
 0.1000000000 0.1000000000 0.1000000000 0.1000000000 0.1000000000 0.1000000000 0.1000000000 0.1000000000 0.1000000000 0.1000000000 0.1000000000 0.1000000000 0.1000000000 0.1000000000 0.1000000000 0.1000000000 0.1000000000 0.1000000000 0.1000000000 0.1000000000 0.1000000000 0.1000000000 0.1000000000 0.1000000000 0.1000000000 0.1000000000 0.1000000000 0.1000000000 0.1000000000 0.1000000000 0.1000000000 0.1000000000 0.1000000000 0.1000000000 0.1000000000 0.1000000000 0.1000000000 0.1000000000 0.1000000000 0.1000000000 0.1000000000 0.1000000000 0.1000000000 0.1000000000 0.1000000000 0.1000000000 0.1000000000 0.1000000000 0.1000000000 0.1000000000 0.1000000000 0.1000000000 0.1000000000 0.1000000000 0.1000000000 0.1000000000 0.1000000000 0.1000000000 0.1000000000 0.1000000000 0.1000000000 0.1000000000 0.1000000000 0.1000000000 0.1000000000 0.1000000000 0.1000000000 0.1000000000 0.1000000000 0.1000000000 0.1000000000 0.1000000000 0.1000000000 0.1000000000 0.1000000000 0.1000000000 0.1000000000 0.1000000000 0.1000000000 0.1000000000 0.1000000000 0.1000000000 0.1000000000 0.1000000000 0.1000000000 0.1000000000 0.1000000000 0.1000000000 0.1000000000 0.1000000000 0.1000000000 0.1000000000 0.1000000000 0.1000000000 0.1000000000 0.1000000000 0.1000000000 0.1000000000 0.1000000000 0.1000000000 0.1000000000 0.1000000000 0.1000000000 0.1000000000 0.1000000000 0.1000000000 0.1000000000 0.1000000000 0.1000000000 0.1000000000 0.1000000000 0.1000000000 0.1000000000 0.1000000000 0.1000000000 0.1000000000 0.1000000000 0.1000000000 0.1000000000 0.1000000000 0.1000000000 0.1000000000 0.1000000000 0.1000000000 0.1000000000 0.1000000000 0.1000000000 0.1000000000 0.1000000000 0.1000000000 0.1000000000 0.1000000000 0.1000000000 0.1000000000 0.1000000000 0.1000000000 0.1000000000 0.1000000000 0.1000000000 0.1000000000 0.1000000000 0.1000000000 0.1000000000 0.1000000000 0.1000000000 0.1000000000 0.1000000000 0.1000000000 0.1000000000 0.1000000000 0.1000000000 0.1000000000 0.1000000000 0.1000000000 0.1000000000 0.1000000000 0.1000000000 0.1000000000 0.1000000000 0.1000000000 0.1000000000 0.1000000000 0.1000000000 0.1000000000 0.1000000000 0.1000000000 0.1000000000 0.1000000000 0.1000000000 0.1000000000 0.1000000000 0.1000000000 0.1000000000 0.1000000000 0.1000000000 0.1000000000 0.1000000000 0.1000000000 0.1000000000 0.1000000000 0.1000000000 0.1000000000 0.1000000000 0.1000000000 0.1000000000 0.1000000000 0.1000000000 0.1000000000 0.1000000000 0.1000000000 0.1000000000 0.1000000000 0.1000000000 0.1000000000 0.1000000000 0.1000000000 0.1000000000 0.1000000000 0.1000000000 0.1000000000 0.1000000000 0.1000000000 0.1000000000 0.1000000000 0.1000000000 0.1000000000 0.1000000000 0.1000000000 0.1000000000 0.1000000000 0.1000000000 0.1000000000 0.1000000000 0.1000000000 0.1000000000 0.1000000000 0.1000000000 0.1000000000 0.1000000000 0.1000000000 0.1000000000 0.1000000000 0.1000000000 0.1000000000 0.1000000000 0.1000000000 0.1000000000 0.1000000000 0.1000000000 0.1000000000 0.1000000000 0.1000000000 0.1000000000 0.1000000000 0.1000000000 0.1000000000 0.1000000000 0.1000000000 0.1000000000 0.1000000000 0.1000000000 0.1000000000 0.1000000000 0.1000000000 0.1000000000 0.1000000000 0.1000000000 0.1000000000 0.1000000000 0.1000000000 0.1000000000 0.1000000000 0.1000000000 0.1000000000 0.1000000000 0.1000000000 0.1000000000 0.1000000000 0.1000000000 0.1000000000 0.1000000000 0.1000000000 0.1000000000 0.1000000000 0.1000000000 0.1000000000 0.1000000000 0.1000000000 0.1000000000 0.1000000000 0.1000000000 0.1000000000 0.1000000000 0.1000000000 0.1000000000 0.1000000000 0.1000000000 0.1000000000 0.1000000000 0.1000000000 0.1000000000 0.1000000000 0.1000000000 0.1000000000 0.1000000000 0.1000000000 0.1000000000 0.1000000000 0.1000000000 0.1000000000 0.1000000000 0.1000000000 0.1000000000 0.1000000000 0.1000000000 0.1000000000 0.1000000000 0.1000000000 0.1000000000 0.1000000000 0.1000000000 0.1000000000 0.1000000000 0.1000000000 0.1000000000 0.1000000000 0.1000000000 0.1000000000 0.1000000000 0.1000000000 0.1000000000 0.1000000000 0.1000000000 0.1000000000 0.1000000000 0.1000000000 0.1000000000 0.1000000000 0.1000000000 0.1000000000 0.1000000000 0.1000000000 0.1000000000 0.1000000000 0.1000000000 0.1000000000 0.1000000000 0.1000000000 0.1000000000 0.1000000000 0.1000000000 0.1000000000 0.1000000000 0.1000000000 0.1000000000 0.1000000000 0.1000000000 0.1000000000 0.1000000000 0.1000000000 0.1000000000 0.1000000000 0.1000000000 0.1000000000 0.1000000000 0.1000000000 0.1000000000 0.1000000000 0.1000000000 0.1000000000 0.1000000000 0.1000000000 0.1000000000 0.1000000000 0.1000000000 0.1000000000 0.1000000000 0.1000000000 0.1000000000 0.1000000000 0.1000000000 0.1000000000 0.1000000000 0.1000000000 0.1000000000 0.1000000000 0.1000000000 0.1000000000 0.1000000000 0.1000000000 0.1000000000 0.1000000000 0.1000000000 0.1000000000 0.1000000000 0.1000000000 0.1000000000 0.1000000000 0.1000000000 0.1000000000 0.1000000000 0.1000000000 0.1000000000 0.1000000000 0.1000000000 0.1000000000 0.1000000000 0.1000000000 0.1000000000 0.1000000000 0.1000000000 0.1000000000 0.1000000000 0.1000000000 0.1000000000 0.1000000000 0.1000000000 0.1000000000 0.1000000000 0.1000000000 0.1000000000 0.1000000000 0.1000000000 0.1000000000 0.1000000000 0.1000000000 0.1000000000 0.1000000000 0.1000000000 0.1000000000 0.1000000000 0.1000000000 0.1000000000 0.1000000000 0.1000000000 0.1000000000 0.1000000000 0.1000000000 0.1000000000 0.1000000000 0.1000000000 0.1000000000 0.1000000000 0.1000000000 0.1000000000 0.1000000000 0.1000000000 0.1000000000 0.1000000000 0.1000000000 0.1000000000 0.1000000000 0.1000000000 0.1000000000 0.1000000000 0.1000000000 0.1000000000 0.1000000000 0.1000000000 0.1000000000 0.1000000000 0.1000000000 0.1000000000 0.1000000000 0.1000000000 0.1000000000 0.1000000000 0.1000000000 0.1000000000 0.1000000000 0.1000000000 0.1000000000 0.1000000000 0.1000000000 0.1000000000 0.1000000000 0.1000000000 0.1000000000 0.1000000000 0.1000000000 0.1000000000 0.1000000000 0.1000000000 0.1000000000 0.1000000000 0.1000000000 0.1000000000 0.1000000000 0.1000000000 0.1000000000 0.1000000000 0.1000000000 0.1000000000 0.1000000000 0.1000000000 0.1000000000 0.1000000000 0.1000000000 0.1000000000 0.1000000000 0.1000000000 0.1000000000 0.1000000000 0.1000000000 0.1000000000 0.1000000000 0.1000000000 0.1000000000 0.1000000000 0.1000000000 0.1000000000 0.1000000000 0.1000000000 0.1000000000 0.1000000000 0.1000000000 0.1000000000 0.1000000000 0.1000000000 0.1000000000 0.1000000000 0.1000000000 0.1000000000 0.1000000000 0.1000000000 0.1000000000 0.1000000000 0.1000000000 0.1000000000 0.1000000000 0.1000000000 0.1000000000 0.1000000000 0.1000000000 0.1000000000 0.1000000000 0.1000000000 0.1000000000 0.1000000000 0.1000000000 0.1000000000 0.1000000000 0.1000000000 0.1000000000 0.1000000000 0.1000000000 0.1000000000 0.1000000000 0.1000000000 0.1000000000 0.1000000000 0.1000000000 0.1000000000 0.1000000000 0.1000000000 0.1000000000 0.1000000000 0.1000000000 0.1000000000 0.1000000000 0.1000000000 0.1000000000 0.1000000000 0.1000000000 0.1000000000 0.1000000000 0.1000000000 0.1000000000 0.1000000000 0.1000000000 0.1000000000 0.1000000000 0.1000000000 0.1000000000 0.1000000000 0.1000000000 0.1000000000 0.1000000000 0.1000000000 0.1000000000 0.1000000000 0.1000000000 0.1000000000 0.1000000000 0.1000000000 0.1000000000 0.1000000000 0.1000000000 0.1000000000 0.1000000000 0.1000000000 0.1000000000 0.1000000000 0.1000000000 0.1000000000 0.1000000000 0.1000000000 0.1000000000 0.1000000000 0.1000000000 0.1000000000 0.1000000000 0.1000000000 0.1000000000 0.1000000000 0.1000000000 0.1000000000 0.1000000000 0.1000000000 0.1000000000 0.1000000000 0.1000000000 0.1000000000 0.1000000000 0.1000000000 0.1000000000 0.1000000000 0.1000000000 0.1000000000 0.1000000000 0.1000000000 0.1000000000 0.1000000000 0.1000000000 0.1000000000 0.1000000000 0.1000000000 0.1000000000 0.1000000000 0.1000000000 0.1000000000 0.1000000000 0.1000000000 0.1000000000 0.1000000000 0.1000000000 0.1000000000 0.1000000000 0.1000000000 0.1000000000 0.1000000000 0.1000000000 0.1000000000 0.1000000000 0.1000000000 0.1000000000 0.1000000000 0.1000000000 0.1000000000 0.1000000000 0.1000000000 0.1000000000 0.1000000000 0.1000000000 0.1000000000 0.1000000000 0.1000000000 0.1000000000 0.1000000000 0.1000000000 0.1000000000 0.1000000000 0.1000000000 0.1000000000 0.1000000000 0.1000000000 0.1000000000 0.1000000000 0.1000000000 0.1000000000 0.1000000000 0.1000000000 0.1000000000 0.1000000000 0.1000000000 0.1000000000 0.1000000000 0.1000000000 0.1000000000 0.1000000000 0.1000000000 0.1000000000 0.1000000000 0.1000000000 0.1000000000 0.1000000000 0.1000000000 0.1000000000 0.1000000000 0.1000000000 0.1000000000 0.1000000000 0.1000000000 0.1000000000 0.1000000000 0.1000000000 0.1000000000 0.1000000000 0.1000000000 0.1000000000 0.1000000000 0.1000000000 0.1000000000 0.1000000000 0.1000000000 0.1000000000 0.1000000000 0.1000000000 0.1000000000 0.1000000000 0.1000000000 0.1000000000 0.1000000000 0.1000000000 0.1000000000 0.1000000000 0.1000000000 0.1000000000 0.1000000000 0.1000000000 0.1000000000 0.1000000000 0.1000000000 0.1000000000 0.1000000000 0.1000000000 0.1000000000 0.1000000000 0.1000000000 0.1000000000 0.1000000000 0.1000000000 0.1000000000 0.1000000000 0.1000000000 0.1000000000 0.1000000000 0.1000000000 0.1000000000 0.1000000000 0.1000000000 0.1000000000 0.1000000000 0.1000000000 0.1000000000 0.1000000000 0.1000000000 0.1000000000 0.1000000000 0.1000000000 0.1000000000 0.1000000000 0.1000000000 0.1000000000 0.1000000000 0.1000000000 0.1000000000 0.1000000000 0.1000000000 0.1000000000 0.1000000000 0.1000000000 0.1000000000 0.1000000000 0.1000000000 0.1000000000 0.1000000000 0.1000000000 0.1000000000 0.1000000000 0.1000000000 0.1000000000 0.1000000000 0.1000000000 0.1000000000 0.1000000000 0.1000000000 0.1000000000 0.1000000000 0.1000000000 0.1000000000 0.1000000000 0.1000000000 0.1000000000 0.1000000000 0.1000000000 0.1000000000 0.1000000000 0.1000000000 0.1000000000 0.1000000000 0.1000000000 0.1000000000 0.1000000000 0.1000000000 0.1000000000 0.1000000000 0.1000000000 0.1000000000 0.1000000000 0.1000000000 0.1000000000 0.1000000000 0.1000000000 0.1000000000 0.1000000000 0.1000000000 0.1000000000 0.1000000000 0.1000000000 0.1000000000 0.1000000000 0.1000000000 0.1000000000 0.1000000000 0.1000000000 0.1000000000 0.1000000000 0.1000000000 0.1000000000 0.1000000000 0.1000000000 0.1000000000 0.1000000000 0.1000000000 0.1000000000 0.1000000000 0.1000000000 0.1000000000 0.1000000000 0.1000000000 0.1000000000 0.1000000000 0.1000000000 0.1000000000 0.1000000000 0.1000000000 0.1000000000 0.1000000000 0.1000000000 0.1000000000 0.1000000000 0.1000000000 0.1000000000 0.1000000000 0.1000000000 0.1000000000 0.1000000000 0.1000000000 0.1000000000 0.1000000000 0.1000000000 0.1000000000 0.1000000000 0.1000000000 0.1000000000 0.1000000000 0.1000000000 0.1000000000 0.1000000000 0.1000000000 0.1000000000 0.1000000000 0.1000000000 0.1000000000 0.1000000000 0.1000000000 0.1000000000 0.1000000000 0.1000000000 0.1000000000 0.1000000000 0.1000000000 0.1000000000 0.1000000000 0.1000000000 0.1000000000 0.1000000000 0.1000000000 0.1000000000 0.1000000000 0.1000000000 0.1000000000 0.1000000000 0.1000000000 0.1000000000 0.1000000000 0.1000000000 0.1000000000 0.1000000000 0.1000000000 0.1000000000 0.1000000000 0.1000000000 0.1000000000 0.1000000000 0.1000000000 0.1000000000 0.1000000000 0.1000000000 0.1000000000 0.1000000000 0.1000000000 0.1000000000 0.1000000000 0.1000000000 0.1000000000 0.1000000000 0.1000000000 0.1000000000 0.1000000000 0.1000000000 0.1000000000 0.1000000000 0.1000000000 0.1000000000 0.1000000000 0.1000000000 0.1000000000 0.1000000000 0.1000000000 0.1000000000 0.1000000000 0.1000000000 0.1000000000 0.1000000000 0.1000000000 0.1000000000 0.1000000000 0.1000000000 0.1000000000 0.1000000000 0.1000000000 0.1000000000 0.1000000000 0.1000000000 0.1000000000 0.1000000000 0.1000000000 0.1000000000 0.1000000000 0.1000000000 0.1000000000 0.1000000000 0.1000000000 0.1000000000 0.1000000000 0.1000000000 0.1000000000 0.1000000000 0.1000000000 0.1000000000 0.1000000000 0.1000000000 0.1000000000 0.1000000000 0.1000000000 0.1000000000 0.1000000000 0.1000000000 0.1000000000 0.1000000000 0.1000000000 0.1000000000 0.1000000000 0.1000000000 0.1000000000 0.1000000000 0.1000000000 0.1000000000 0.1000000000 0.1000000000 0.1000000000 0.1000000000 0.1000000000 0.1000000000 0.1000000000 0.1000000000 0.1000000000 0.1000000000 0.1000000000 0.1000000000 0.1000000000 0.1000000000 0.1000000000 0.1000000000 0.1000000000 0.1000000000 0.1000000000 0.1000000000 0.1000000000 0.1000000000 0.1000000000 0.1000000000 0.1000000000 0.1000000000 0.1000000000 0.1000000000 0.1000000000 0.1000000000 0.1000000000 0.1000000000 0.1000000000 0.1000000000 0.1000000000 0.1000000000 0.1000000000 0.1000000000 0.1000000000 0.1000000000 0.1000000000 0.1000000000 0.1000000000 0.1000000000 0.1000000000 0.1000000000 0.1000000000 0.1000000000 0.1000000000 0.1000000000 0.1000000000 0.1000000000 0.1000000000 0.1000000000 0.1000000000 0.1000000000 0.1000000000 0.1000000000 0.1000000000 0.1000000000 0.1000000000 0.1000000000 0.1000000000 0.1000000000 0.1000000000 0.1000000000 0.1000000000 0.1000000000 0.1000000000 0.1000000000 0.1000000000 0.1000000000 0.1000000000 0.1000000000 0.1000000000 0.1000000000 0.1000000000 0.1000000000 0.1000000000 0.1000000000 0.1000000000 0.1000000000 0.1000000000 0.1000000000 0.1000000000 0.1000000000 0.1000000000 0.1000000000 0.1000000000 0.1000000000 0.1000000000 0.1000000000 0.1000000000 0.1000000000 0.1000000000 0.1000000000 0.1000000000 0.1000000000 0.1000000000 0.1000000000 0.1000000000 0.1000000000 0.1000000000 0.1000000000 0.1000000000 0.1000000000 0.1000000000 0.1000000000 0.1000000000 0.1000000000 0.1000000000 0.1000000000 0.1000000000 0.1000000000 0.1000000000 0.1000000000 0.1000000000 0.1000000000 0.1000000000 0.1000000000 0.1000000000 0.1000000000 0.1000000000 0.1000000000 0.1000000000 0.1000000000 0.1000000000 0.1000000000 0.1000000000 0.1000000000 0.1000000000 0.1000000000 0.1000000000 0.1000000000 0.1000000000 0.1000000000 0.1000000000 0.1000000000 0.1000000000 0.1000000000 0.1000000000 0.1000000000 0.1000000000 0.1000000000 0.1000000000 0.1000000000 0.1000000000 0.1000000000 0.1000000000 0.1000000000 0.1000000000 0.1000000000 0.1000000000 0.1000000000 0.1000000000 0.1000000000 0.1000000000 0.1000000000 0.1000000000 0.1000000000 0.1000000000 0.1000000000 0.1000000000 0.1000000000 0.1000000000 0.1000000000 0.1000000000 0.1000000000 0.1000000000 0.1000000000 0.1000000000 0.1000000000 0.1000000000 0.1000000000 0.1000000000 0.1000000000 0.1000000000 0.1000000000 0.1000000000 0.1000000000 0.1000000000 0.1000000000 0.1000000000 0.1000000000 0.1000000000 0.1000000000 0.1000000000 0.1000000000 0.1000000000 0.1000000000 0.1000000000 0.1000000000 0.1000000000 0.1000000000 0.1000000000 0.1000000000 0.1000000000 0.1000000000 0.1000000000 0.1000000000 0.1000000000 0.1000000000 0.1000000000 0.1000000000 0.1000000000 0.1000000000 0.1000000000 0.1000000000 0.1000000000 0.1000000000 0.1000000000 0.1000000000 0.1000000000 0.1000000000 0.1000000000 0.1000000000 0.1000000000 0.1000000000 0.1000000000 0.1000000000 0.1000000000 0.1000000000 0.1000000000 0.1000000000 0.1000000000 0.1000000000 0.1000000000 0.1000000000 0.1000000000 0.1000000000 0.1000000000 0.1000000000 0.1000000000 0.1000000000 0.1000000000 0.1000000000 0.1000000000 0.1000000000 0.1000000000 0.1000000000 0.1000000000 0.1000000000 0.1000000000 0.1000000000 0.1000000000 0.1000000000 0.1000000000 0.1000000000 0.1000000000 0.1000000000 0.1000000000 0.1000000000 0.1000000000 0.1000000000 0.1000000000 0.1000000000 0.1000000000 0.1000000000 0.1000000000 0.1000000000 0.1000000000 0.1000000000 0.1000000000 0.1000000000 0.1000000000 0.1000000000 0.1000000000 0.1000000000 0.1000000000 0.1000000000 0.1000000000 0.1000000000 0.1000000000 0.1000000000 0.1000000000 0.1000000000 0.1000000000 0.1000000000 0.1000000000 0.1000000000 0.1000000000 0.1000000000 0.1000000000 0.1000000000 0.1000000000 0.1000000000 0.1000000000 0.1000000000 0.1000000000 0.1000000000 0.1000000000 0.1000000000 0.1000000000 0.1000000000 0.1000000000 0.1000000000 0.1000000000 0.1000000000 0.1000000000 0.1000000000 0.1000000000 0.1000000000 0.1000000000 0.1000000000 0.1000000000 0.1000000000 0.1000000000 0.1000000000 0.1000000000 0.1000000000 0.1000000000 0.1000000000 0.1000000000 0.1000000000 0.1000000000 0.1000000000 0.1000000000 0.1000000000 0.1000000000 0.1000000000 0.1000000000 0.1000000000 0.1000000000 0.1000000000 0.1000000000 0.1000000000 0.1000000000 0.1000000000 0.1000000000 0.1000000000 0.1000000000 0.1000000000 0.1000000000 0.1000000000 0.1000000000 0.1000000000 0.1000000000 0.1000000000 0.1000000000 0.1000000000 0.1000000000 0.1000000000 0.1000000000 0.1000000000 0.1000000000 0.1000000000 0.1000000000 0.1000000000 0.1000000000 0.1000000000 0.1000000000 0.1000000000 0.1000000000 0.1000000000 0.1000000000 0.1000000000 0.1000000000 0.1000000000 0.1000000000 0.1000000000 0.1000000000 0.1000000000 0.1000000000 0.1000000000 0.1000000000 0.1000000000 0.1000000000 0.1000000000 0.1000000000 0.1000000000 0.1000000000 0.1000000000 0.1000000000 0.1000000000 0.1000000000 0.1000000000 0.1000000000 0.1000000000 0.1000000000 0.1000000000 0.1000000000 0.1000000000 0.1000000000 0.1000000000 0.1000000000 0.1000000000 0.1000000000 0.1000000000 0.1000000000 0.1000000000 0.1000000000 0.1000000000 0.1000000000 0.1000000000 0.1000000000 0.1000000000 0.1000000000 0.1000000000 0.1000000000 0.1000000000 0.1000000000 0.1000000000 0.1000000000 0.1000000000 0.1000000000 0.1000000000 0.1000000000 0.1000000000 0.1000000000 0.1000000000 0.1000000000 0.1000000000 0.1000000000 0.1000000000 0.1000000000 0.1000000000 0.1000000000 0.1000000000 0.1000000000 0.1000000000 0.1000000000 0.1000000000 0.1000000000 0.1000000000 0.1000000000 0.1000000000 0.1000000000 0.1000000000 0.1000000000 0.1000000000 0.1000000000 0.1000000000 0.1000000000 0.1000000000 0.1000000000 0.1000000000 0.1000000000 0.1000000000 0.1000000000 0.1000000000 0.1000000000 0.1000000000 0.1000000000 0.1000000000 0.1000000000 0.1000000000 0.1000000000 0.1000000000 0.1000000000 0.1000000000 0.1000000000 0.1000000000 0.1000000000 0.1000000000 0.1000000000 0.1000000000 0.1000000000 0.1000000000 0.1000000000 0.1000000000 0.1000000000 0.1000000000 0.1000000000 0.1000000000 0.1000000000 0.1000000000 0.1000000000 0.1000000000 0.1000000000 0.1000000000 0.1000000000 0.1000000000 0.1000000000 0.1000000000 0.1000000000 0.1000000000 0.1000000000 0.1000000000 0.1000000000 0.1000000000 0.1000000000 0.1000000000 0.1000000000 0.1000000000 0.1000000000 0.1000000000 0.1000000000 0.1000000000 0.1000000000 0.1000000000 0.1000000000 0.1000000000 0.1000000000 0.1000000000 0.1000000000 0.1000000000 0.1000000000 0.1000000000 0.1000000000 0.1000000000 0.1000000000 0.1000000000 0.1000000000 0.1000000000 0.1000000000 0.1000000000 0.1000000000 0.1000000000 0.1000000000 0.1000000000 0.1000000000 0.1000000000 0.1000000000 0.1000000000 0.1000000000 0.1000000000 0.1000000000 0.1000000000 0.1000000000 0.1000000000 0.1000000000 0.1000000000 0.1000000000 0.1000000000 0.1000000000 0.1000000000 0.1000000000 0.1000000000 0.1000000000 0.1000000000 0.1000000000 0.1000000000 0.1000000000 0.1000000000 0.1000000000 0.1000000000 0.1000000000 0.1000000000 0.1000000000 0.1000000000 0.1000000000 0.1000000000 0.1000000000 0.1000000000 0.1000000000 0.1000000000 0.1000000000 0.1000000000 0.1000000000 0.1000000000 0.1000000000 0.1000000000 0.1000000000 0.1000000000 0.1000000000 0.1000000000 0.1000000000 0.1000000000 0.1000000000 0.1000000000 0.1000000000 0.1000000000 0.1000000000 0.1000000000 0.1000000000 0.1000000000 0.1000000000 0.1000000000 0.1000000000 0.1000000000 0.1000000000 0.1000000000 0.1000000000 0.1000000000 0.1000000000 0.1000000000 0.1000000000 0.1000000000 0.1000000000 0.1000000000 0.10000000