<?xml version="1.0"?>
<VTKFile type="UnstructuredGrid" version="0.1" byte_order="LittleEndian">
  <UnstructuredGrid>
    <FieldData>
      <DataArray type="Float32" Name="TIME"  NumberOfTuples="1" format="ascii"> 3.0000000000 </DataArray>
      <DataArray type="Int32"   Name="STEP"  NumberOfTuples="1" format="ascii"> 750000 </DataArray>
    </FieldData>
    <Piece NumberOfPoints="11600" NumberOfCells="11600">
      <Points>
        <DataArray type="Float32" NumberOfComponents="3" format="ascii">
 -0.5412672039 -0.9568161560 0.0000019009 -0.3413286130 -0.9518604264 0.0000018663 -0.1413900204 -0.9469046968 0.0000018300 0.0585485687 -0.9419489671 0.0000017868 0.2584871604 -0.9369932374 0.0000017414 0.4584257507 -0.9320375082 0.0000016932 0.6583643407 -0.9270817790 0.0000016412 0.8583029310 -0.9221260504 0.0000015854 1.0582415178 -0.9171703217 0.0000015226 1.2581801077 -0.9122145935 0.0000014587 1.4581186967 -0.9072588661 0.0000013942 1.6580572858 -0.9023031395 0.0000013300 1.8579958756 -0.8973474141 0.0000012670 2.0579344626 -0.8923916907 0.0000012078 2.2578730536 -0.8874359685 0.0000011562 2.4578116448 -0.8824802471 0.0000011102 2.6577502363 -0.8775245255 0.0000010705 2.8576888288 -0.8725688043 0.0000010371 3.0576274203 -0.8676130827 0.0000010159 3.2575660132 -0.8626573605 0.0000010016 3.4575046053 -0.8577016384 0.0000009924 3.6574431974 -0.8527459161 0.0000009869 3.8573817899 -0.8477901942 0.0000009833 4.0573203811 -0.8428344720 0.0000009838 4.2572589734 -0.8378787499 0.0000009792 4.4571975654 -0.8329230286 0.0000009726 4.6571361577 -0.8279673078 0.0000009637 4.8570747516 -0.8230115876 0.0000009530 5.0570133451 -0.8180558664 0.0000009410 5.2569519391 -0.8131001446 0.0000009299 5.4568905322 -0.8081444224 0.0000009202 5.6568291253 -0.8031886995 0.0000009125 5.8567677194 -0.7982329766 0.0000009067 6.0567063170 -0.7932772547 0.0000009045 6.2566449128 -0.7883215300 0.0000009052 6.4565835081 -0.7833658029 0.0000009081 6.6565221026 -0.7784100735 0.0000009145 6.8564606969 -0.7734543438 0.0000009256 7.0563992891 -0.7684986150 0.0000009459 7.2563378812 -0.7635428845 0.0000009760 7.4562764722 -0.7585871527 0.0000010115 7.6562150626 -0.7536314204 0.0000010505 7.8561536534 -0.7486756872 0.0000010900 8.0560922407 -0.7437199537 0.0000011290 8.2560308298 -0.7387642205 0.0000011526 8.4559694181 -0.7338084895 0.0000011669 8.6559080067 -0.7288527591 0.0000011691 8.8558465966 -0.7238970292 0.0000011586 9.0557851849 -0.7189412995 0.0000011268 9.2557237757 -0.7139855698 0.0000010736 9.4556623656 -0.7090298402 0.0000010064 9.6556009552 -0.7040741109 0.0000009248 9.8555395449 -0.6991183817 0.0000008307 10.0554781314 -0.6941626528 0.0000007152 10.2554167201 -0.6892069235 0.0000005928 10.4553553078 -0.6842511948 0.0000004659 10.6552938949 -0.6792954660 0.0000003376 10.8552324823 -0.6743397375 0.0000002110 11.0551710638 -0.6693840094 0.0000000837 11.2551096507 -0.6644282812 -0.0000000262 11.4550482372 -0.6594725533 -0.0000001284 11.6549868247 -0.6545168253 -0.0000002222 11.8549254137 -0.6495610977 -0.0000003084 12.0548639993 -0.6446053692 -0.0000003906 12.2548025894 -0.6396496407 -0.0000004630 12.4547411770 -0.6346939135 -0.0000005387 12.6546797680 -0.6297381852 -0.0000006124 12.8546183591 -0.6247824592 -0.0000006884 13.0545569496 -0.6198267320 -0.0000007711 13.2544955454 -0.6148710040 -0.0000008527 13.4544341364 -0.6099152747 -0.0000009369 13.7060743642 -0.5915601824 -0.0000000000 13.9060722484 -0.5924799838 -0.0000000000 14.1060701326 -0.5933997849 -0.0000000000 14.3060680194 -0.5943195855 -0.0000000000 14.5060659038 -0.5952393871 -0.0000000000 14.7060637892 -0.5961591878 -0.0000000000 14.9060616746 -0.5970789892 -0.0000000000 15.1060595591 -0.5979987902 -0.0000000000 15.3060574454 -0.5989185914 -0.0000000000 15.5060553299 -0.5998383926 -0.0000000000 15.7060532157 -0.6007581937 -0.0000000000 15.9060511010 -0.6016779944 0.0000000000 16.2015238167 -0.4459756755 0.0000000021 16.4014216213 -0.4395828741 0.0000000255 16.6013194246 -0.4331900734 0.0000000517 16.8012172302 -0.4267972724 0.0000000785 17.0011150343 -0.4204044715 0.0000001058 17.2010128383 -0.4140116706 0.0000001330 17.4009106438 -0.4076188697 0.0000001593 17.6008084475 -0.4012260687 0.0000001842 17.8007062527 -0.3948332673 0.0000002056 18.0006040568 -0.3884404658 0.0000002258 18.2005018607 -0.3820476643 0.0000002453 18.4003996658 -0.3756548630 0.0000002648 18.6002974686 -0.3692620617 0.0000002844 18.8001952737 -0.3628692597 0.0000003059 19.0000930774 -0.3564764583 0.0000003279 19.1999908811 -0.3500836571 0.0000003504 19.3998886845 -0.3436908559 0.0000003734 -0.4455896962 -0.7811863922 0.0000018066 -0.2456511055 -0.7762306627 0.0000017733 -0.0457125140 -0.7712749326 0.0000017373 0.1542260774 -0.7663192031 0.0000016971 0.3541646680 -0.7613634736 0.0000016539 0.5541032582 -0.7564077441 0.0000016075 0.7540418481 -0.7514520149 0.0000015572 0.9539804377 -0.7464962860 0.0000015025 1.1539190273 -0.7415405580 0.0000014430 1.3538576167 -0.7365848303 0.0000013816 1.5537962062 -0.7316291032 0.0000013196 1.7537347959 -0.7266733768 0.0000012580 1.9536733861 -0.7217176521 0.0000011985 2.1536119768 -0.7167619297 0.0000011444 2.3535505677 -0.7118062081 0.0000010958 2.5534891591 -0.7068504866 0.0000010529 2.7534277508 -0.7018947649 0.0000010160 2.9533663430 -0.6969390436 0.0000009869 3.1533049354 -0.6919833220 0.0000009678 3.3532435276 -0.6870275998 0.0000009551 3.5531821198 -0.6820718775 0.0000009469 3.7531207117 -0.6771161552 0.0000009419 3.9530593038 -0.6721604331 0.0000009389 4.1529978960 -0.6672047112 0.0000009355 4.3529364882 -0.6622489896 0.0000009300 4.5528750807 -0.6572932685 0.0000009221 4.7528136735 -0.6523375478 0.0000009122 4.9527522671 -0.6473818274 0.0000009011 5.1526908609 -0.6424261058 0.0000008898 5.3526294538 -0.6374703839 0.0000008794 5.5525680466 -0.6325146614 0.0000008706 5.7525066399 -0.6275589386 0.0000008638 5.9524452350 -0.6226032163 0.0000008591 6.1523838300 -0.6176474929 0.0000008577 6.3523224242 -0.6126917674 0.0000008590 6.5522610181 -0.6077360393 0.0000008633 6.7521996114 -0.6027803094 0.0000008721 6.9521382046 -0.5978245798 0.0000008873 7.1520767964 -0.5928688497 0.0000009126 7.3520153870 -0.5879131186 0.0000009446 7.5519539772 -0.5829573865 0.0000009809 7.7518925669 -0.5780016537 0.0000010190 7.9518311563 -0.5730459199 0.0000010552 8.1517697454 -0.5680901865 0.0000010825 8.3517083343 -0.5631344546 0.0000010995 8.5516469234 -0.5581787238 0.0000011055 8.7515855126 -0.5532229939 0.0000010989 8.9515241024 -0.5482672642 0.0000010769 9.1514626925 -0.5433115346 0.0000010332 9.3514012825 -0.5383558051 0.0000009739 9.5513398724 -0.5334000755 0.0000009010 9.7512784617 -0.5284443461 0.0000008150 9.9512170505 -0.5234886168 0.0000007157 10.1511556387 -0.5185328874 0.0000006024 10.3510942266 -0.5135771585 0.0000004828 10.5510328140 -0.5086214298 0.0000003607 10.7509714006 -0.5036657009 0.0000002388 10.9509099862 -0.4987099720 0.0000001200 11.1508485717 -0.4937542439 0.0000000100 11.3507871579 -0.4887985161 -0.0000000908 11.5507257447 -0.4838427887 -0.0000001835 11.7506643320 -0.4788870610 -0.0000002685 11.9506029200 -0.4739313329 -0.0000003471 12.1505415083 -0.4689756052 -0.0000004191 12.3504800974 -0.4640198772 -0.0000004888 12.5504186872 -0.4590641501 -0.0000005593 12.7503572777 -0.4541084235 -0.0000006315 12.9502958691 -0.4491526965 -0.0000007068 13.1502344615 -0.4441969703 -0.0000007858 13.3501730546 -0.4392412414 -0.0000008668 13.6068719905 -0.4178970359 -0.0000000000 13.8068698767 -0.4188168353 -0.0000000000 14.0068677619 -0.4197366363 -0.0000000000 14.2068656472 -0.4206564378 -0.0000000000 14.4068635324 -0.4215762387 -0.0000000000 14.6068614176 -0.4224960400 -0.0000000000 14.8068593027 -0.4234158412 0.0000000000 15.0068571878 -0.4243356421 0.0000000000 15.2068550734 -0.4252554437 0.0000000000 15.4068529585 -0.4261752444 0.0000000000 15.6068508440 -0.4270950453 0.0000000000 15.8068487266 -0.4280148486 0.0000000000 16.0960385874 -0.2760555010 -0.0000000197 16.2959363901 -0.2696626996 0.0000000029 16.4958341948 -0.2632698983 0.0000000266 16.6957319997 -0.2568770974 0.0000000522 16.8956298040 -0.2504842964 0.0000000785 17.0955276084 -0.2440914956 0.0000001051 17.2954254127 -0.2376986949 0.0000001312 17.4953232176 -0.2313058936 0.0000001561 17.6952210223 -0.2249130925 0.0000001787 17.8951188265 -0.2185202911 0.0000001996 18.0950166306 -0.2121274897 0.0000002196 18.2949144346 -0.2057346885 0.0000002395 18.4948122390 -0.1993418866 0.0000002599 18.6947100433 -0.1929490852 0.0000002812 18.8946078472 -0.1865562838 0.0000003034 19.0945056512 -0.1801634825 0.0000003260 19.2944034551 -0.1737706814 0.0000003491 19.4943012581 -0.1673778803 0.0000003723 -0.5498507812 -0.6105123579 0.0000017434 -0.3499121895 -0.6055566274 0.0000017130 -0.1499735970 -0.6006008976 0.0000016817 0.0499649930 -0.5956451677 0.0000016474 0.2499035849 -0.5906894381 0.0000016096 0.4498421756 -0.5857337086 0.0000015689 0.6497807662 -0.5807779793 0.0000015245 0.8497193570 -0.5758222503 0.0000014762 1.0496579455 -0.5708665217 0.0000014230 1.2495965361 -0.5659107940 0.0000013659 1.4495351263 -0.5609550667 0.0000013072 1.6494737166 -0.5559993399 0.0000012478 1.8494123076 -0.5510436143 0.0000011891 2.0493508975 -0.5460878904 0.0000011334 2.2492894893 -0.5411321685 0.0000010828 2.4492280810 -0.5361764469 0.0000010370 2.6491666728 -0.5312207254 0.0000009968 2.8491052650 -0.5262650039 0.0000009626 3.0490438566 -0.5213092824 0.0000009372 3.2489824492 -0.5163535606 0.0000009203 3.4489210415 -0.5113978383 0.0000009088 3.6488596336 -0.5064421159 0.0000009014 3.8487982258 -0.5014863936 0.0000008964 4.0487368172 -0.4965306714 0.0000008926 4.2486754097 -0.4915749497 0.0000008875 4.4486140023 -0.4866192286 0.0000008806 4.6485525951 -0.4816635076 0.0000008717 4.8484911884 -0.4767077867 0.0000008613 5.0484297810 -0.4717520659 0.0000008501 5.2483683743 -0.4667963440 0.0000008394 5.4483069672 -0.4618406217 0.0000008298 5.6482455599 -0.4568848992 0.0000008219 5.8481841535 -0.4519291766 0.0000008157 6.0481227475 -0.4469734540 0.00000
[...]
      <PointData Scalars="radius">
        <DataArray type="Float32" Name="radius" format="ascii">
 0.1000000000 0.1000000000 0.1000000000 0.1000000000 0.1000000000 0.1000000000 0.1000000000 0.1000000000 0.1000000000 0.1000000000 0.1000000000 0.1000000000 0.1000000000 0.1000000000 0.1000000000 0.1000000000 0.1000000000 0.1000000000 0.1000000000 0.1000000000 0.1000000000 0.1000000000 0.1000000000 0.1000000000 0.1000000000 0.1000000000 0.1000000000 0.1000000000 0.1000000000 0.1000000000 0.1000000000 0.1000000000 0.1000000000 0.1000000000 0.1000000000 0.1000000000 0.1000000000 0.1000000000 0.1000000000 0.1000000000 0.1000000000 0.1000000000 0.1000000000 0.1000000000 0.1000000000 0.1000000000 0.1000000000 0.1000000000 0.1000000000 0.1000000000 0.1000000000 0.1000000000 0.1000000000 0.1000000000 0.1000000000 0.1000000000 0.1000000000 0.1000000000 0.1000000000 0.1000000000 0.1000000000 0.1000000000 0.1000000000 0.1000000000 0.1000000000 0.1000000000 0.1000000000 0.1000000000 0.1000000000 0.1000000000 0.1000000000 0.1000000000 0.1000000000 0.1000000000 0.1000000000 0.1000000000 0.1000000000 0.1000000000 0.1000000000 0.1000000000 0.1000000000 0.1000000000 0.1000000000 0.1000000000 0.1000000000 0.1000000000 0.1000000000 0.1000000000 0.1000000000 0.1000000000 0.1000000000 0.1000000000 0.1000000000 0.1000000000 0.1000000000 0.1000000000 0.1000000000 0.1000000000 0.1000000000 0.1000000000 0.1000000000 0.1000000000 0.1000000000 0.1000000000 0.1000000000 0.1000000000 0.1000000000 0.1000000000 0.1000000000 0.1000000000 0.1000000000 0.1000000000 0.1000000000 0.1000000000 0.1000000000 0.1000000000 0.1000000000 0.1000000000 0.1000000000 0.1000000000 0.1000000000 0.1000000000 0.1000000000 0.1000000000 0.1000000000 0.1000000000 0.1000000000 0.1000000000 0.1000000000 0.1000000000 0.1000000000 0.1000000000 0.1000000000 0.1000000000 0.1000000000 0.1000000000 0.1000000000 0.1000000000 0.1000000000 0.1000000000 0.1000000000 0.1000000000 0.1000000000 0.1000000000 0.1000000000 0.1000000000 0.1000000000 0.1000000000 0.1000000000 0.1000000000 0.1000000000 0.1000000000 0.1000000000 0.1000000000 0.1000000000 0.1000000000 0.1000000000 0.1000000000 0.1000000000 0.1000000000 0.1000000000 0.1000000000 0.1000000000 0.1000000000 0.1000000000 0.1000000000 0.1000000000 0.1000000000 0.1000000000 0.1000000000 0.1000000000 0.1000000000 0.1000000000 0.1000000000 0.1000000000 0.1000000000 0.1000000000 0.1000000000 0.1000000000 0.1000000000 0.1000000000 0.1000000000 0.1000000000 0.1000000000 0.1000000000 0.1000000000 0.1000000000 0.1000000000 0.1000000000 0.1000000000 0.1000000000 0.1000000000 0.1000000000 0.1000000000 0.1000000000 0.1000000000 0.1000000000 0.1000000000 0.1000000000 0.1000000000 0.1000000000 0.1000000000 0.1000000000 0.1000000000 0.1000000000 0.1000000000 0.1000000000 0.1000000000 0.1000000000 0.1000000000 0.1000000000 0.1000000000 0.1000000000 0.1000000000 0.1000000000 0.1000000000 0.1000000000 0.1000000000 0.1000000000 0.1000000000 0.1000000000 0.1000000000 0.1000000000 0.1000000000 0.1000000000 0.1000000000 0.1000000000 0.1000000000 0.1000000000 0.1000000000 0.1000000000 0.1000000000 0.1000000000 0.1000000000 0.1000000000 0.1000000000 0.1000000000 0.1000000000 0.1000000000 0.1000000000 0.1000000000 0.1000000000 0.1000000000 0.1000000000 0.1000000000 0.1000000000 0.1000000000 0.1000000000 0.1000000000 0.1000000000 0.1000000000 0.1000000000 0.1000000000 0.1000000000 0.1000000000 0.1000000000 0.1000000000 0.1000000000 0.1000000000 0.1000000000 0.1000000000 0.1000000000 0.1000000000 0.1000000000 0.1000000000 0.1000000000 0.1000000000 0.1000000000 0.1000000000 0.1000000000 0.1000000000 0.1000000000 0.1000000000 0.1000000000 0.1000000000 0.1000000000 0.1000000000 0.1000000000 0.1000000000 0.1000000000 0.1000000000 0.1000000000 0.1000000000 0.1000000000 0.1000000000 0.1000000000 0.1000000000 0.1000000000 0.1000000000 0.1000000000 0.1000000000 0.1000000000 0.1000000000 0.1000000000 0.1000000000 0.1000000000 0.1000000000 0.1000000000 0.1000000000 0.1000000000 0.1000000000 0.1000000000 0.1000000000 0.1000000000 0.1000000000 0.1000000000 0.1000000000 0.1000000000 0.1000000000 0.1000000000 0.1000000000 0.1000000000 0.1000000000 0.1000000000 0.1000000000 0.1000000000 0.1000000000 0.1000000000 0.1000000000 0.1000000000 0.1000000000 0.1000000000 0.1000000000 0.1000000000 0.1000000000 0.1000000000 0.1000000000 0.1000000000 0.1000000000 0.1000000000 0.1000000000 0.1000000000 0.1000000000 0.1000000000 0.1000000000 0.1000000000 0.1000000000 0.1000000000 0.1000000000 0.1000000000 0.1000000000 0.1000000000 0.1000000000 0.1000000000 0.1000000000 0.1000000000 0.1000000000 0.1000000000 0.1000000000 0.1000000000 0.1000000000 0.1000000000 0.1000000000 0.1000000000 0.1000000000 0.1000000000 0.1000000000 0.1000000000 0.1000000000 0.1000000000 0.1000000000 0.1000000000 0.1000000000 0.1000000000 0.1000000000 0.1000000000 0.1000000000 0.1000000000 0.1000000000 0.1000000000 0.1000000000 0.1000000000 0.1000000000 0.1000000000 0.1000000000 0.1000000000 0.1000000000 0.1000000000 0.1000000000 0.1000000000 0.1000000000 0.1000000000 0.1000000000 0.1000000000 0.1000000000 0.1000000000 0.1000000000 0.1000000000 0.1000000000 0.1000000000 0.1000000000 0.1000000000 0.1000000000 0.1000000000 0.1000000000 0.1000000000 0.1000000000 0.1000000000 0.1000000000 0.1000000000 0.1000000000 0.1000000000 0.1000000000 0.1000000000 0.1000000000 0.1000000000 0.1000000000 0.1000000000 0.1000000000 0.1000000000 0.1000000000 0.1000000000 0.1000000000 0.1000000000 0.1000000000 0.1000000000 0.1000000000 0.1000000000 0.1000000000 0.1000000000 0.1000000000 0.1000000000 0.1000000000 0.1000000000 0.1000000000 0.1000000000 0.1000000000 0.1000000000 0.1000000000 0.1000000000 0.1000000000 0.1000000000 0.1000000000 0.1000000000 0.1000000000 0.1000000000 0.1000000000 0.1000000000 0.1000000000 0.1000000000 0.1000000000 0.1000000000 0.1000000000 0.1000000000 0.1000000000 0.1000000000 0.1000000000 0.1000000000 0.1000000000 0.1000000000 0.1000000000 0.1000000000 0.1000000000 0.1000000000 0.1000000000 0.1000000000 0.1000000000 0.1000000000 0.1000000000 0.1000000000 0.1000000000 0.1000000000 0.1000000000 0.1000000000 0.1000000000 0.1000000000 0.1000000000 0.1000000000 0.1000000000 0.1000000000 0.1000000000 0.1000000000 0.1000000000 0.1000000000 0.1000000000 0.1000000000 0.1000000000 0.1000000000 0.1000000000 0.1000000000 0.1000000000 0.1000000000 0.1000000000 0.1000000000 0.1000000000 0.1000000000 0.1000000000 0.1000000000 0.1000000000 0.1000000000 0.1000000000 0.1000000000 0.1000000000 0.1000000000 0.1000000000 0.1000000000 0.1000000000 0.1000000000 0.1000000000 0.1000000000 0.1000000000 0.1000000000 0.1000000000 0.1000000000 0.1000000000 0.1000000000 0.1000000000 0.1000000000 0.1000000000 0.1000000000 0.1000000000 0.1000000000 0.1000000000 0.1000000000 0.1000000000 0.1000000000 0.1000000000 0.1000000000 0.1000000000 0.1000000000 0.1000000000 0.1000000000 0.1000000000 0.1000000000 0.1000000000 0.1000000000 0.1000000000 0.1000000000 0.1000000000 0.1000000000 0.1000000000 0.1000000000 0.1000000000 0.1000000000 0.1000000000 0.1000000000 0.1000000000 0.1000000000 0.1000000000 0.1000000000 0.1000000000 0.1000000000 0.1000000000 0.1000000000 0.1000000000 0.1000000000 0.1000000000 0.1000000000 0.1000000000 0.1000000000 0.1000000000 0.1000000000 0.1000000000 0.1000000000 0.1000000000 0.1000000000 0.1000000000 0.1000000000 0.1000000000 0.1000000000 0.1000000000 0.1000000000 0.1000000000 0.1000000000 0.1000000000 0.1000000000 0.1000000000 0.1000000000 0.1000000000 0.1000000000 0.1000000000 0.1000000000 0.1000000000 0.1000000000 0.1000000000 0.1000000000 0.1000000000 0.1000000000 0.1000000000 0.1000000000 0.1000000000 0.1000000000 0.1000000000 0.1000000000 0.1000000000 0.1000000000 0.1000000000 0.1000000000 0.1000000000 0.1000000000 0.1000000000 0.1000000000 0.1000000000 0.1000000000 0.1000000000 0.1000000000 0.1000000000 0.1000000000 0.1000000000 0.1000000000 0.1000000000 0.1000000000 0.1000000000 0.1000000000 0.1000000000 0.1000000000 0.1000000000 0.1000000000 0.1000000000 0.1000000000 0.1000000000 0.1000000000 0.1000000000 0.1000000000 0.1000000000 0.1000000000 0.1000000000 0.1000000000 0.1000000000 0.1000000000 0.1000000000 0.1000000000 0.1000000000 0.1000000000 0.1000000000 0.1000000000 0.1000000000 0.1000000000 0.1000000000 0.1000000000 0.1000000000 0.1000000000 0.1000000000 0.1000000000 0.1000000000 0.1000000000 0.1000000000 0.1000000000 0.1000000000 0.1000000000 0.1000000000 0.1000000000 0.1000000000 0.1000000000 0.1000000000 0.1000000000 0.1000000000 0.1000000000 0.1000000000 0.1000000000 0.1000000000 0.1000000000 0.1000000000 0.1000000000 0.1000000000 0.1000000000 0.1000000000 0.1000000000 0.1000000000 0.1000000000 0.1000000000 0.1000000000 0.1000000000 0.1000000000 0.1000000000 0.1000000000 0.1000000000 0.1000000000 0.1000000000 0.1000000000 0.1000000000 0.1000000000 0.1000000000 0.1000000000 0.1000000000 0.1000000000 0.1000000000 0.1000000000 0.1000000000 0.1000000000 0.1000000000 0.1000000000 0.1000000000 0.1000000000 0.1000000000 0.1000000000 0.1000000000 0.1000000000 0.1000000000 0.1000000000 0.1000000000 0.1000000000 0.1000000000 0.1000000000 0.1000000000 0.1000000000 0.1000000000 0.1000000000 0.1000000000 0.1000000000 0.1000000000 0.1000000000 0.1000000000 0.1000000000 0.1000000000 0.1000000000 0.1000000000 0.1000000000 0.1000000000 0.1000000000 0.1000000000 0.1000000000 0.1000000000 0.1000000000 0.1000000000 0.1000000000 0.1000000000 0.1000000000 0.1000000000 0.1000000000 0.1000000000 0.1000000000 0.1000000000 0.1000000000 0.1000000000 0.1000000000 0.1000000000 0.1000000000 0.1000000000 0.1000000000 0.1000000000 0.1000000000 0.1000000000 0.1000000000 0.1000000000 0.1000000000 0.1000000000 0.1000000000 0.1000000000 0.1000000000 0.1000000000 0.1000000000 0.1000000000 0.1000000000 0.1000000000 0.1000000000 0.1000000000 0.1000000000 0.1000000000 0.1000000000 0.1000000000 0.1000000000 0.1000000000 0.1000000000 0.1000000000 0.1000000000 0.1000000000 0.1000000000 0.1000000000 0.1000000000 0.1000000000 0.1000000000 0.1000000000 0.1000000000 0.1000000000 0.1000000000 0.1000000000 0.1000000000 0.1000000000 0.1000000000 0.1000000000 0.1000000000 0.1000000000 0.1000000000 0.1000000000 0.1000000000 0.1000000000 0.1000000000 0.1000000000 0.1000000000 0.1000000000 0.1000000000 0.1000000000 0.1000000000 0.1000000000 0.1000000000 0.1000000000 0.1000000000 0.1000000000 0.1000000000 0.1000000000 0.1000000000 0.1000000000 0.1000000000 0.1000000000 0.1000000000 0.1000000000 0.1000000000 0.1000000000 0.1000000000 0.1000000000 0.1000000000 0.1000000000 0.1000000000 0.1000000000 0.1000000000 0.1000000000 0.1000000000 0.1000000000 0.1000000000 0.1000000000 0.1000000000 0.1000000000 0.1000000000 0.1000000000 0.1000000000 0.1000000000 0.1000000000 0.1000000000 0.1000000000 0.1000000000 0.1000000000 0.1000000000 0.1000000000 0.1000000000 0.1000000000 0.1000000000 0.1000000000 0.1000000000 0.1000000000 0.1000000000 0.1000000000 0.1000000000 0.1000000000 0.1000000000 0.1000000000 0.1000000000 0.1000000000 0.1000000000 0.1000000000 0.1000000000 0.1000000000 0.1000000000 0.1000000000 0.1000000000 0.1000000000 0.1000000000 0.1000000000 0.1000000000 0.1000000000 0.1000000000 0.1000000000 0.1000000000 0.1000000000 0.1000000000 0.1000000000 0.1000000000 0.1000000000 0.1000000000 0.1000000000 0.1000000000 0.1000000000 0.1000000000 0.1000000000 0.1000000000 0.1000000000 0.1000000000 0.1000000000 0.1000000000 0.1000000000 0.1000000000 0.1000000000 0.1000000000 0.1000000000 0.1000000000 0.1000000000 0.1000000000 0.1000000000 0.1000000000 0.1000000000 0.1000000000 0.1000000000 0.1000000000 0.1000000000 0.1000000000 0.1000000000 0.1000000000 0.1000000000 0.1000000000 0.1000000000 0.1000000000 0.1000000000 0.1000000000 0.1000000000 0.1000000000 0.1000000000 0.1000000000 0.1000000000 0.1000000000 0.1000000000 0.1000000000 0.1000000000 0.1000000000 0.1000000000 0.1000000000 0.1000000000 0.1000000000 0.1000000000 0.1000000000 0.1000000000 0.1000000000 0.1000000000 0.1000000000 0.1000000000 0.1000000000 0.1000000000 0.1000000000 0.1000000000 0.1000000000 0.1000000000 0.1000000000 0.1000000000 0.1000000000 0.1000000000 0.1000000000 0.1000000000 0.1000000000 0.1000000000 0.1000000000 0.1000000000 0.1000000000 0.1000000000 0.1000000000 0.1000000000 0.1000000000 0.1000000000 0.1000000000 0.1000000000 0.1000000000 0.1000000000 0.1000000000 0.1000000000 0.1000000000 0.1000000000 0.1000000000 0.1000000000 0.1000000000 0.1000000000 0.1000000000 0.1000000000 0.1000000000 0.1000000000 0.1000000000 0.1000000000 0.1000000000 0.1000000000 0.1000000000 0.1000000000 0.1000000000 0.1000000000 0.1000000000 0.1000000000 0.1000000000 0.1000000000 0.1000000000 0.1000000000 0.1000000000 0.1000000000 0.1000000000 0.1000000000 0.1000000000 0.1000000000 0.1000000000 0.1000000000 0.1000000000 0.1000000000 0.1000000000 0.1000000000 0.1000000000 0.1000000000 0.1000000000 0.1000000000 0.1000000000 0.1000000000 0.1000000000 0.1000000000 0.1000000000 0.1000000000 0.1000000000 0.1000000000 0.1000000000 0.1000000000 0.1000000000 0.1000000000 0.1000000000 0.1000000000 0.1000000000 0.1000000000 0.1000000000 0.1000000000 0.1000000000 0.1000000000 0.1000000000 0.1000000000 0.1000000000 0.1000000000 0.1000000000 0.1000000000 0.1000000000 0.1000000000 0.1000000000 0.1000000000 0.1000000000 0.1000000000 0.1000000000 0.1000000000 0.1000000000 0.1000000000 0.1000000000 0.1000000000 0.1000000000 0.1000000000 0.1000000000 0.1000000000 0.1000000000 0.1000000000 0.1000000000 0.1000000000 0.1000000000 0.1000000000 0.1000000000 0.1000000000 0.1000000000 0.1000000000 0.1000000000 0.1000000000 0.1000000000 0.1000000000 0.1000000000 0.1000000000 0.1000000000 0.1000000000 0.1000000000 0.1000000000 0.1000000000 0.1000000000 0.1000000000 0.1000000000 0.1000000000 0.1000000000 0.1000000000 0.1000000000 0.1000000000 0.1000000000 0.1000000000 0.1000000000 0.1000000000 0.1000000000 0.1000000000 0.1000000000 0.1000000000 0.1000000000 0.1000000000 0.1000000000 0.1000000000 0.1000000000 0.1000000000 0.1000000000 0.1000000000 0.1000000000 0.1000000000 0.1000000000 0.1000000000 0.1000000000 0.1000000000 0.1000000000 0.1000000000 0.1000000000 0.1000000000 0.1000000000 0.1000000000 0.1000000000 0.1000000000 0.1000000000 0.1000000000 0.1000000000 0.1000000000 0.1000000000 0.1000000000 0.1000000000 0.1000000000 0.1000000000 0.1000000000 0.1000000000 0.1000000000 0.1000000000 0.1000000000 0.1000000000 0.1000000000 0.1000000000 0.1000000000 0.1000000000 0.1000000000 0.1000000000 0.1000000000 0.1000000000 0.1000000000 0.1000000000 0.1000000000 0.1000000000 0.1000000000 0.1000000000 0.1000000000 0.1000000000 0.1000000000 0.1000000000 0.1000000000 0.1000000000 0.1000000000 0.1000000000 0.1000000000 0.1000000000 0.1000000000 0.1000000000 0.1000000000 0.1000000000 0.1000000000 0.1000000000 0.1000000000 0.1000000000 0.1000000000 0.1000000000 0.1000000000 0.1000000000 0.1000000000 0.1000000000 0.1000000000 0.1000000000 0.1000000000 0.1000000000 0.1000000000 0.1000000000 0.1000000000 0.1000000000 0.1000000000 0.1000000000 0.1000000000 0.1000000000 0.1000000000 0.1000000000 0.1000000000 0.1000000000 0.1000000000 0.1000000000 0.1000000000 0.1000000000 0.1000000000 0.1000000000 0.1000000000 0.1000000000 0.1000000000 0.1000000000 0.1000000000 0.1000000000 0.1000000000 0.1000000000 0.1000000000 0.1000000000 0.1000000000 0.1000000000 0.1000000000 0.1000000000 0.1000000000 0.1000000000 0.1000000000 0.1000000000 0.1000000000 0.1000000000 0.1000000000 0.1000000000 0.1000000000 0.1000000000 0.1000000000 0.1000000000 0.1000000000 0.1000000000 0.1000000000 0.1000000000 0.1000000000 0.1000000000 0.1000000000 0.1000000000 0.1000000000 0.1000000000 0.1000000000 0.1000000000 0.1000000000 0.1000000000 0.1000000000 0.1000000000 0.1000000000 0.1000000000 0.1000000000 0.1000000000 0.1000000000 0.1000000000 0.1000000000 0.1000000000 0.1000000000 0.1000000000 0.1000000000 0.1000000000 0.1000000000 0.1000000000 0.1000000000 0.1000000000 0.1000000000 0.1000000000 0.1000000000 0.1000000000 0.1000000000 0.1000000000 0.1000000000 0.1000000000 0.1000000000 0.1000000000 0.1000000000 0.1000000000 0.1000000000 0.1000000000 0.1000000000 0.1000000000 0.1000000000 0.1000000000 0.1000000000 0.1000000000 0.1000000000 0.1000000000 0.1000000000 0.1000000000 0.1000000000 0.1000000000 0.1000000000 0.1000000000 0.1000000000 0.1000000000 0.1000000000 0.1000000000 0.1000000000 0.1000000000 0.1000000000 0.1000000000 0.1000000000 0.1000000000 0.1000000000 0.1000000000 0.1000000000 0.1000000000 0.1000000000 0.1000000000 0.1000000000 0.1000000000 0.1000000000 0.1000000000 0.1000000000 0.1000000000 0.1000000000 0.1000000000 0.1000000000 0.1000000000 0.1000000000 0.1000000000 0.1000000000 0.1000000000 0.1000000000 0.1000000000 0.1000000000 0.1000000000 0.1000000000 0.1000000000 0.1000000000 0.1000000000 0.1000000000 0.1000000000 0.1000000000 0.1000000000 0.1000000000 0.1000000000 0.1000000000 0.1000000000 0.1000000000 0.1000000000 0.1000000000 0.1000000000 0.1000000000 0.1000000000 0.1000000000 0.1000000000 0.1000000000 0.1000000000 0.1000000000 0.1000000000 0.1000000000 0.1000000000 0.1000000000 0.1000000000 0.1000000000 0.1000000000 0.1000000000 0.1000000000 0.1000000000 0.1000000000 0.1000000000 0.1000000000 0.1000000000 0.1000000000 0.1000000000 0.1000000000 0.1000000000 0.1000000000 0.1000000000 0.1000000000 0.1000000000 0.1000000000 0.1000000000 0.1000000000 0.1000000000 0.1000000000 0.1000000000 0.1000000000 0.1000000000 0.1000000000 0.1000000000 0.1000000000 0.1000000000 0.1000000000 0.1000000000 0.1000000000 0.1000000000 0.1000000000 0.1000000000 0.1000000000 0.1000000000 0.1000000000 0.1000000000 0.1000000000 0.1000000000 0.1000000000 0.1000000000 0.1000000000 0.1000000000 0.1000000000 0.1000000000 0.1000000000 0.1000000000 0.1000000000 0.1000000000 0.1000000000 0.1000000000 0.1000000000 0.1000000000 0.1000000000 0.1000000000 0.1000000000 0.1000000000 0.1000000000 0.1000000000 0.1000000000 0.1000000000 0.1000000000 0.1000000000 0.1000000000 0.1000000000 0.1000000000 0.1000000000 0.1000000000 0.1000000000 0.1000000000 0.1000000000 0.1000000000 0.1000000000 0.1000000000 0.1000000000 0.1000000000 0.1000000000 0.1000000000 0.1000000000 0.1000000000 0.1000000000 0.1000000000 0.1000000000 0.1000000000 0.1000000000 0.1000000000 0.1000000000 0.1000000000 0.1000000000 0.1000000000 0.1000000000 0.1000000000 0.1000000000 0.1000000000 0.1000000000 0.1000000000 0.1000000000 0.1000000000 0.1000000000 0.1000000000 0.1000000000 0.1000000000 0.1000000000 0.1000000000 0.1000000000 0.1000000000 0.1000000000 0.1000000000 0.1000000000 0.1000000000 0.1000000000 0.1000000000 0.1000000000 0.1000000000 0.1000000000 0.1000000000 0.1000000000 0.1000000000 0.1000000000 0.1000000000 0.1000000000 0.1000000000 0.1000000000 0.1000000000 0.1000000000 0.1000000000 0.1000000000 0.1000000000 0.1000000000 0.1000000000 0.1000000000 0.1000000000 0.1000000000 0.1000000000 0.1000000000 0.1000000000 0.1000000000 0.1000000000 0.1000000000 0.1000000000 0.1000000000 0.1000000000 0.1000000000 0.1000000000 0.1000000000 0.1000000000 0.1000000000 0.1000000000 0.1000000000 0.1000000000 0.1000000000 0.1000000000 0.1000000000 0.1000000000 0.1000000000 0.1000000000 0.1000000000 0.1000000000 0.1000000000 0.1000000000 0.1000000000 0.1000000000 0.1000000000 0.1000000000 0.1000000000 0.1000000000 0.1000000000 0.1000000000 0.1000000000 0.1000000000 0.1000000000 0.1000000000 0.1000000000 0.1000000000 0.1000000000 0.1000000000 0.1000000000 0.1000000000 0.1000000000 0.1000000000 0.1000000000 0.1000000000 0.1000000000 0.1000000000 0.1000000000 0.1000000000 0.1000000000 0.1000000000 0.1000000000 0.1000000000 0.1000000000 0.1000000000 0.1000000000 0.1000000000 0.1000000000 0.1000000000 0.1000000000 0.1000000000 0.1000000000 0.1000000000 0.1000000000 0.1000000000 0.1000000000 0.1000000000 0.1000000000 0.1000000000 0.1000000000 0.1000000000 0.1000000000 0.1000000000 0.1000000000 0.1000000000 0.1000000000 0.1000000000 0.1000000000 0.1000000000 0.1000000000 0.1000000000 0.1000000000 0.1000000000 0.1000000000 0.1000000000 0.10000000