<?xml version="1.0"?>
<VTKFile type="UnstructuredGrid" version="0.1" byte_order="LittleEndian">
  <UnstructuredGrid>
    <FieldData>
      <DataArray type="Float32" Name="TIME"  NumberOfTuples="1" format="ascii"> 1.5500000000 </DataArray>
      <DataArray type="Int32"   Name="STEP"  NumberOfTuples="1" format="ascii"> 387500 </DataArray>
    </FieldData>
    <Piece NumberOfPoints="11600" NumberOfCells="11600">
      <Points>
        <DataArray type="Float32" NumberOfComponents="3" format="ascii">
 -0.2520954529 -0.5396825396 -0.0000027561 -0.0521177860 -0.5366938459 -0.0000026292 0.1478598834 -0.5337051523 -0.0000025050 0.3478375503 -0.5307164582 -0.0000023942 0.5478152197 -0.5277277637 -0.0000022867 0.7477928874 -0.5247390697 -0.0000021863 0.9477705551 -0.5217503755 -0.0000020929 1.1477482234 -0.5187616818 -0.0000020034 1.3477258901 -0.5157729881 -0.0000019170 1.5477035585 -0.5127842945 -0.0000018172 1.7476812261 -0.5097956013 -0.0000017082 1.9476588938 -0.5068069084 -0.0000015908 2.1476365621 -0.5038182156 -0.0000014709 2.3476142293 -0.5008295229 -0.0000013515 2.5475918980 -0.4978408300 -0.0000012661 2.7475695660 -0.4948521376 -0.0000011996 2.9475472339 -0.4918634451 -0.0000011528 3.1475249031 -0.4888747529 -0.0000011208 3.3475025710 -0.4858860603 -0.0000011089 3.5474802406 -0.4828973676 -0.0000010903 3.7474579090 -0.4799086750 -0.0000010722 3.9474355778 -0.4769199823 -0.0000010577 4.1474132475 -0.4739312898 -0.0000010518 4.3473909179 -0.4709425969 -0.0000010730 4.5473685876 -0.4679539037 -0.0000011187 4.7473462568 -0.4649652108 -0.0000011827 4.9473239259 -0.4619765178 -0.0000012626 5.1473015960 -0.4589878251 -0.0000013518 5.3472792685 -0.4559991316 -0.0000014612 5.5472569390 -0.4530104373 -0.0000015468 5.7472346087 -0.4500217430 -0.0000016208 5.9472122784 -0.4470330484 -0.0000016763 6.1471899488 -0.4440443540 -0.0000017101 6.3471676221 -0.4410556584 -0.0000017099 6.5471452922 -0.4380669624 -0.0000016721 6.7471229615 -0.4350782665 -0.0000016156 6.9471006307 -0.4320895706 -0.0000015442 7.1470783006 -0.4291008750 -0.0000014634 7.3470559709 -0.4261121790 -0.0000013731 7.5470336405 -0.4231234831 -0.0000012851 7.7470113092 -0.4201347875 -0.0000011972 7.9469889779 -0.4171460921 -0.0000011085 8.1469666473 -0.4141573970 -0.0000010195 8.3469443168 -0.4111687021 -0.0000009241 8.5469219862 -0.4081800070 -0.0000008475 8.7468996548 -0.4051913122 -0.0000007816 8.9468773237 -0.4022026174 -0.0000007291 9.1468549934 -0.3992139228 -0.0000006873 9.3468326635 -0.3962252280 -0.0000006564 9.5468103330 -0.3932365329 -0.0000006055 9.7467880015 -0.3902478381 -0.0000005363 9.9467656700 -0.3872591433 -0.0000004438 10.1467433390 -0.3842704487 -0.0000003319 10.3467210070 -0.3812817545 -0.0000001927 10.5466986757 -0.3782930605 -0.0000000684 10.7466763438 -0.3753043670 0.0000000443 10.9466540117 -0.3723156736 0.0000001427 11.1466316808 -0.3693269805 0.0000002312 11.3466093485 -0.3663382874 0.0000003144 11.5465870176 -0.3633495945 0.0000004071 11.7465646856 -0.3603609018 0.0000005040 11.9465423536 -0.3573722094 0.0000006005 12.1465200231 -0.3543835170 0.0000006900 12.3464976909 -0.3513948241 0.0000007498 12.5464753605 -0.3484061310 0.0000007976 12.7464530283 -0.3454174385 0.0000008219 12.9464306971 -0.3424287448 0.0000008677 13.1464083663 -0.3394400522 0.0000009254 13.3463860339 -0.3364513593 0.0000010071 13.5463637051 -0.3334626661 0.0000011057 13.7463413727 -0.3304739711 0.0000012157 13.9679472832 -0.3224215557 0.0000000000 14.1679465923 -0.3229470005 0.0000000000 14.3679459013 -0.3234724451 0.0000000000 14.5679452130 -0.3239978891 0.0000000000 14.7679445222 -0.3245233341 0.0000000000 14.9679438325 -0.3250487783 0.0000000000 15.1679431427 -0.3255742232 0.0000000000 15.3679424521 -0.3260996676 0.0000000000 15.5679417632 -0.3266251122 0.0000000000 15.7679410726 -0.3271505569 0.0000000000 15.9679403832 -0.3276760015 0.0000000000 16.1679396934 -0.3282014457 0.0000000000 16.4185631200 -0.2433397590 0.0000000064 16.6185329843 -0.2398679846 0.0000000061 16.8185028468 -0.2363962116 0.0000000060 17.0184727116 -0.2329244385 0.0000000053 17.2184425757 -0.2294526661 0.0000000055 17.4184124398 -0.2259808936 0.0000000049 17.6183823053 -0.2225091212 0.0000000047 17.8183521692 -0.2190373485 0.0000000046 18.0183220348 -0.2155655752 0.0000000042 18.2182918995 -0.2120938019 0.0000000043 18.4182617641 -0.2086220286 0.0000000040 18.6182316305 -0.2051502555 0.0000000039 18.8182014948 -0.2016784824 0.0000000038 19.0181713614 -0.1982067086 0.0000000035 19.2181412265 -0.1947349350 0.0000000034 19.4181110913 -0.1912631611 0.0000000032 19.6180809555 -0.1877913868 0.0000000029 -0.1546949037 -0.3650024534 -0.0000027051 0.0452827633 -0.3620137600 -0.0000025746 0.2452604319 -0.3590250658 -0.0000024483 0.4452381006 -0.3560363717 -0.0000023301 0.6452157684 -0.3530476774 -0.0000022189 0.8451934362 -0.3500589831 -0.0000021153 1.0451711039 -0.3470702889 -0.0000020182 1.2451487721 -0.3440815950 -0.0000019250 1.4451264404 -0.3410929016 -0.0000018291 1.6451041081 -0.3381042083 -0.0000017262 1.8450817758 -0.3351155152 -0.0000016162 2.0450594436 -0.3321268220 -0.0000015018 2.2450371118 -0.3291381292 -0.0000013904 2.4450147803 -0.3261494366 -0.0000012968 2.6449924482 -0.3231607441 -0.0000012232 2.8449701163 -0.3201720515 -0.0000011680 3.0449477844 -0.3171833590 -0.0000011284 3.2449254532 -0.3141946665 -0.0000011003 3.4449031223 -0.3112059742 -0.0000010773 3.6448807909 -0.3082172816 -0.0000010536 3.8448584598 -0.3052285889 -0.0000010319 4.0448361288 -0.3022398962 -0.0000010174 4.2448137986 -0.2992512037 -0.0000010183 4.4447914688 -0.2962625107 -0.0000010463 4.6447691381 -0.2932738177 -0.0000010947 4.8447468075 -0.2902851247 -0.0000011595 5.0447244771 -0.2872964318 -0.0000012364 5.2447021478 -0.2843077391 -0.0000013213 5.4446798188 -0.2813190449 -0.0000014042 5.6446574886 -0.2783303508 -0.0000014765 5.8446351584 -0.2753416563 -0.0000015342 6.0446128284 -0.2723529617 -0.0000015731 6.2445904996 -0.2693642670 -0.0000015868 6.4445681706 -0.2663755709 -0.0000015641 6.6445458402 -0.2633868749 -0.0000015169 6.8445235099 -0.2603981791 -0.0000014525 7.0445011794 -0.2574094832 -0.0000013760 7.2444788495 -0.2544207874 -0.0000012921 7.4444565195 -0.2514320913 -0.0000012051 7.6444341885 -0.2484433956 -0.0000011189 7.8444118576 -0.2454547001 -0.0000010334 8.0443895266 -0.2424660048 -0.0000009480 8.2443671962 -0.2394773098 -0.0000008631 8.4443448659 -0.2364886147 -0.0000007847 8.6443225347 -0.2334999199 -0.0000007165 8.8443002038 -0.2305112251 -0.0000006599 9.0442778728 -0.2275225304 -0.0000006144 9.2442555428 -0.2245338357 -0.0000005759 9.4442332127 -0.2215451406 -0.0000005319 9.6442108816 -0.2185564458 -0.0000004721 9.8441885504 -0.2155677510 -0.0000003915 10.0441662189 -0.2125790563 -0.0000002900 10.2441438879 -0.2095903617 -0.0000001714 10.4441215568 -0.2066016675 -0.0000000471 10.6440992251 -0.2036129739 0.0000000685 10.8440768936 -0.2006242805 0.0000001709 11.0440545618 -0.1976355872 0.0000002614 11.2440322305 -0.1946468940 0.0000003467 11.4440098993 -0.1916582011 0.0000004362 11.6439875677 -0.1886695083 0.0000005329 11.8439652361 -0.1856808160 0.0000006335 12.0439429042 -0.1826921234 0.0000007312 12.2439205731 -0.1797034307 0.0000008162 12.4438982419 -0.1767147383 0.0000008793 12.6438759104 -0.1737260451 0.0000009286 12.8438535792 -0.1707373524 0.0000009753 13.0438312471 -0.1677486597 0.0000010313 13.2438089164 -0.1647599662 0.0000011018 13.4437865852 -0.1617712743 0.0000011919 13.6437642538 -0.1587825802 0.0000012924 13.8684026743 -0.1489543536 0.0000000000 14.0684019854 -0.1494797964 0.0000000000 14.2684012954 -0.1500052407 0.0000000000 14.4684006055 -0.1505306857 0.0000000000 14.6683999156 -0.1510561301 0.0000000000 14.8683992257 -0.1515815748 0.0000000000 15.0683985356 -0.1521070194 0.0000000000 15.2683978456 -0.1526324638 0.0000000000 15.4683971560 -0.1531579089 0.0000000000 15.6683964660 -0.1536833530 0.0000000000 15.8683957764 -0.1542087974 0.0000000000 16.0683950838 -0.1547342442 0.0000000000 16.3155715439 -0.0718966648 0.0000000065 16.5155414068 -0.0684248902 0.0000000060 16.7155112714 -0.0649531161 0.0000000054 16.9154811359 -0.0614813430 0.0000000058 17.1154510001 -0.0580095704 0.0000000049 17.3154208645 -0.0545377980 0.0000000047 17.5153907289 -0.0510660257 0.0000000047 17.7153605937 -0.0475942527 0.0000000042 17.9153304586 -0.0441224798 0.0000000043 18.1153003233 -0.0406507066 0.0000000038 18.3152701881 -0.0371789336 0.0000000039 18.5152400532 -0.0337071608 0.0000000037 18.7152099189 -0.0302353871 0.0000000034 18.9151797846 -0.0267636139 0.0000000033 19.1151496496 -0.0232918403 0.0000000032 19.3151195146 -0.0198200665 0.0000000029 19.5150893792 -0.0163482925 0.0000000027 19.7150592429 -0.0128765183 0.0000000025 -0.2572720229 -0.1933110603 -0.0000027887 -0.0572943553 -0.1903223664 -0.0000026521 0.1426833137 -0.1873336725 -0.0000025164 0.3426609806 -0.1843449783 -0.0000023857 0.5426386495 -0.1813562840 -0.0000022626 0.7426163174 -0.1783675897 -0.0000021471 0.9425939854 -0.1753788956 -0.0000020396 1.1425716539 -0.1723902016 -0.0000019383 1.3425493212 -0.1694015076 -0.0000018404 1.5425269897 -0.1664128145 -0.0000017400 1.7425046577 -0.1634241212 -0.0000016354 1.9424823256 -0.1604354280 -0.0000015272 2.1424599940 -0.1574467351 -0.0000014201 2.3424376614 -0.1544580421 -0.0000013238 2.5424153301 -0.1514693498 -0.0000012463 2.7423929983 -0.1484806573 -0.0000011847 2.9423706666 -0.1454919648 -0.0000011378 3.1423483353 -0.1425032725 -0.0000011009 3.3423260034 -0.1395145799 -0.0000010701 3.5423036726 -0.1365258875 -0.0000010398 3.7422813414 -0.1335371949 -0.0000010108 3.9422590104 -0.1305485023 -0.0000009873 4.1422366798 -0.1275598098 -0.0000009750 4.3422143496 -0.1245711167 -0.0000009842 4.5421920192 -0.1215824239 -0.0000010173 4.7421696888 -0.1185937310 -0.0000010668 4.9421473583 -0.1156050380 -0.0000011290 5.1421250282 -0.1126163451 -0.0000011988 5.3421026986 -0.1096276518 -0.0000012713 5.5420803687 -0.1066389576 -0.0000013375 5.7420580385 -0.1036502632 -0.0000013938 5.9420357083 -0.
[...]
      <PointData Scalars="radius">
        <DataArray type="Float32" Name="radius" format="ascii">
 0.1000000000 0.1000000000 0.1000000000 0.1000000000 0.1000000000 0.1000000000 0.1000000000 0.1000000000 0.1000000000 0.1000000000 0.1000000000 0.1000000000 0.1000000000 0.1000000000 0.1000000000 0.1000000000 0.1000000000 0.1000000000 0.1000000000 0.1000000000 0.1000000000 0.1000000000 0.1000000000 0.1000000000 0.1000000000 0.1000000000 0.1000000000 0.1000000000 0.1000000000 0.1000000000 0.1000000000 0.1000000000 0.1000000000 0.1000000000 0.1000000000 0.1000000000 0.1000000000 0.1000000000 0.1000000000 0.1000000000 0.1000000000 0.1000000000 0.1000000000 0.1000000000 0.1000000000 0.1000000000 0.1000000000 0.1000000000 0.1000000000 0.1000000000 0.1000000000 0.1000000000 0.1000000000 0.1000000000 0.1000000000 0.1000000000 0.1000000000 0.1000000000 0.1000000000 0.1000000000 0.1000000000 0.1000000000 0.1000000000 0.1000000000 0.1000000000 0.1000000000 0.1000000000 0.1000000000 0.1000000000 0.1000000000 0.1000000000 0.1000000000 0.1000000000 0.1000000000 0.1000000000 0.1000000000 0.1000000000 0.1000000000 0.1000000000 0.1000000000 0.1000000000 0.1000000000 0.1000000000 0.1000000000 0.1000000000 0.1000000000 0.1000000000 0.1000000000 0.1000000000 0.1000000000 0.1000000000 0.1000000000 0.1000000000 0.1000000000 0.1000000000 0.1000000000 0.1000000000 0.1000000000 0.1000000000 0.1000000000 0.1000000000 0.1000000000 0.1000000000 0.1000000000 0.1000000000 0.1000000000 0.1000000000 0.1000000000 0.1000000000 0.1000000000 0.1000000000 0.1000000000 0.1000000000 0.1000000000 0.1000000000 0.1000000000 0.1000000000 0.1000000000 0.1000000000 0.1000000000 0.1000000000 0.1000000000 0.1000000000 0.1000000000 0.1000000000 0.1000000000 0.1000000000 0.1000000000 0.1000000000 0.1000000000 0.1000000000 0.1000000000 0.1000000000 0.1000000000 0.1000000000 0.1000000000 0.1000000000 0.1000000000 0.1000000000 0.1000000000 0.1000000000 0.1000000000 0.1000000000 0.1000000000 0.1000000000 0.1000000000 0.1000000000 0.1000000000 0.1000000000 0.1000000000 0.1000000000 0.1000000000 0.1000000000 0.1000000000 0.1000000000 0.1000000000 0.1000000000 0.1000000000 0.1000000000 0.1000000000 0.1000000000 0.1000000000 0.1000000000 0.1000000000 0.1000000000 0.1000000000 0.1000000000 0.1000000000 0.1000000000 0.1000000000 0.1000000000 0.1000000000 0.1000000000 0.1000000000 0.1000000000 0.1000000000 0.1000000000 0.1000000000 0.1000000000 0.1000000000 0.1000000000 0.1000000000 0.1000000000 0.1000000000 0.1000000000 0.1000000000 0.1000000000 0.1000000000 0.1000000000 0.1000000000 0.1000000000 0.1000000000 0.1000000000 0.1000000000 0.1000000000 0.1000000000 0.1000000000 0.1000000000 0.1000000000 0.1000000000 0.1000000000 0.1000000000 0.1000000000 0.1000000000 0.1000000000 0.1000000000 0.1000000000 0.1000000000 0.1000000000 0.1000000000 0.1000000000 0.1000000000 0.1000000000 0.1000000000 0.1000000000 0.1000000000 0.1000000000 0.1000000000 0.1000000000 0.1000000000 0.1000000000 0.1000000000 0.1000000000 0.1000000000 0.1000000000 0.1000000000 0.1000000000 0.1000000000 0.1000000000 0.1000000000 0.1000000000 0.1000000000 0.1000000000 0.1000000000 0.1000000000 0.1000000000 0.1000000000 0.1000000000 0.1000000000 0.1000000000 0.1000000000 0.1000000000 0.1000000000 0.1000000000 0.1000000000 0.1000000000 0.1000000000 0.1000000000 0.1000000000 0.1000000000 0.1000000000 0.1000000000 0.1000000000 0.1000000000 0.1000000000 0.1000000000 0.1000000000 0.1000000000 0.1000000000 0.1000000000 0.1000000000 0.1000000000 0.1000000000 0.1000000000 0.1000000000 0.1000000000 0.1000000000 0.1000000000 0.1000000000 0.1000000000 0.1000000000 0.1000000000 0.1000000000 0.1000000000 0.1000000000 0.1000000000 0.1000000000 0.1000000000 0.1000000000 0.1000000000 0.1000000000 0.1000000000 0.1000000000 0.1000000000 0.1000000000 0.1000000000 0.1000000000 0.1000000000 0.1000000000 0.1000000000 0.1000000000 0.1000000000 0.1000000000 0.1000000000 0.1000000000 0.1000000000 0.1000000000 0.1000000000 0.1000000000 0.1000000000 0.1000000000 0.1000000000 0.1000000000 0.1000000000 0.1000000000 0.1000000000 0.1000000000 0.1000000000 0.1000000000 0.1000000000 0.1000000000 0.1000000000 0.1000000000 0.1000000000 0.1000000000 0.1000000000 0.1000000000 0.1000000000 0.1000000000 0.1000000000 0.1000000000 0.1000000000 0.1000000000 0.1000000000 0.1000000000 0.1000000000 0.1000000000 0.1000000000 0.1000000000 0.1000000000 0.1000000000 0.1000000000 0.1000000000 0.1000000000 0.1000000000 0.1000000000 0.1000000000 0.1000000000 0.1000000000 0.1000000000 0.1000000000 0.1000000000 0.1000000000 0.1000000000 0.1000000000 0.1000000000 0.1000000000 0.1000000000 0.1000000000 0.1000000000 0.1000000000 0.1000000000 0.1000000000 0.1000000000 0.1000000000 0.1000000000 0.1000000000 0.1000000000 0.1000000000 0.1000000000 0.1000000000 0.1000000000 0.1000000000 0.1000000000 0.1000000000 0.1000000000 0.1000000000 0.1000000000 0.1000000000 0.1000000000 0.1000000000 0.1000000000 0.1000000000 0.1000000000 0.1000000000 0.1000000000 0.1000000000 0.1000000000 0.1000000000 0.1000000000 0.1000000000 0.1000000000 0.1000000000 0.1000000000 0.1000000000 0.1000000000 0.1000000000 0.1000000000 0.1000000000 0.1000000000 0.1000000000 0.1000000000 0.1000000000 0.1000000000 0.1000000000 0.1000000000 0.1000000000 0.1000000000 0.1000000000 0.1000000000 0.1000000000 0.1000000000 0.1000000000 0.1000000000 0.1000000000 0.1000000000 0.1000000000 0.1000000000 0.1000000000 0.1000000000 0.1000000000 0.1000000000 0.1000000000 0.1000000000 0.1000000000 0.1000000000 0.1000000000 0.1000000000 0.1000000000 0.1000000000 0.1000000000 0.1000000000 0.1000000000 0.1000000000 0.1000000000 0.1000000000 0.1000000000 0.1000000000 0.1000000000 0.1000000000 0.1000000000 0.1000000000 0.1000000000 0.1000000000 0.1000000000 0.1000000000 0.1000000000 0.1000000000 0.1000000000 0.1000000000 0.1000000000 0.1000000000 0.1000000000 0.1000000000 0.1000000000 0.1000000000 0.1000000000 0.1000000000 0.1000000000 0.1000000000 0.1000000000 0.1000000000 0.1000000000 0.1000000000 0.1000000000 0.1000000000 0.1000000000 0.1000000000 0.1000000000 0.1000000000 0.1000000000 0.1000000000 0.1000000000 0.1000000000 0.1000000000 0.1000000000 0.1000000000 0.1000000000 0.1000000000 0.1000000000 0.1000000000 0.1000000000 0.1000000000 0.1000000000 0.1000000000 0.1000000000 0.1000000000 0.1000000000 0.1000000000 0.1000000000 0.1000000000 0.1000000000 0.1000000000 0.1000000000 0.1000000000 0.1000000000 0.1000000000 0.1000000000 0.1000000000 0.1000000000 0.1000000000 0.1000000000 0.1000000000 0.1000000000 0.1000000000 0.1000000000 0.1000000000 0.1000000000 0.1000000000 0.1000000000 0.1000000000 0.1000000000 0.1000000000 0.1000000000 0.1000000000 0.1000000000 0.1000000000 0.1000000000 0.1000000000 0.1000000000 0.1000000000 0.1000000000 0.1000000000 0.1000000000 0.1000000000 0.1000000000 0.1000000000 0.1000000000 0.1000000000 0.1000000000 0.1000000000 0.1000000000 0.1000000000 0.1000000000 0.1000000000 0.1000000000 0.1000000000 0.1000000000 0.1000000000 0.1000000000 0.1000000000 0.1000000000 0.1000000000 0.1000000000 0.1000000000 0.1000000000 0.1000000000 0.1000000000 0.1000000000 0.1000000000 0.1000000000 0.1000000000 0.1000000000 0.1000000000 0.1000000000 0.1000000000 0.1000000000 0.1000000000 0.1000000000 0.1000000000 0.1000000000 0.1000000000 0.1000000000 0.1000000000 0.1000000000 0.1000000000 0.1000000000 0.1000000000 0.1000000000 0.1000000000 0.1000000000 0.1000000000 0.1000000000 0.1000000000 0.1000000000 0.1000000000 0.1000000000 0.1000000000 0.1000000000 0.1000000000 0.1000000000 0.1000000000 0.1000000000 0.1000000000 0.1000000000 0.1000000000 0.1000000000 0.1000000000 0.1000000000 0.1000000000 0.1000000000 0.1000000000 0.1000000000 0.1000000000 0.1000000000 0.1000000000 0.1000000000 0.1000000000 0.1000000000 0.1000000000 0.1000000000 0.1000000000 0.1000000000 0.1000000000 0.1000000000 0.1000000000 0.1000000000 0.1000000000 0.1000000000 0.1000000000 0.1000000000 0.1000000000 0.1000000000 0.1000000000 0.1000000000 0.1000000000 0.1000000000 0.1000000000 0.1000000000 0.1000000000 0.1000000000 0.1000000000 0.1000000000 0.1000000000 0.1000000000 0.1000000000 0.1000000000 0.1000000000 0.1000000000 0.1000000000 0.1000000000 0.1000000000 0.1000000000 0.1000000000 0.1000000000 0.1000000000 0.1000000000 0.1000000000 0.1000000000 0.1000000000 0.1000000000 0.1000000000 0.1000000000 0.1000000000 0.1000000000 0.1000000000 0.1000000000 0.1000000000 0.1000000000 0.1000000000 0.1000000000 0.1000000000 0.1000000000 0.1000000000 0.1000000000 0.1000000000 0.1000000000 0.1000000000 0.1000000000 0.1000000000 0.1000000000 0.1000000000 0.1000000000 0.1000000000 0.1000000000 0.1000000000 0.1000000000 0.1000000000 0.1000000000 0.1000000000 0.1000000000 0.1000000000 0.1000000000 0.1000000000 0.1000000000 0.1000000000 0.1000000000 0.1000000000 0.1000000000 0.1000000000 0.1000000000 0.1000000000 0.1000000000 0.1000000000 0.1000000000 0.1000000000 0.1000000000 0.1000000000 0.1000000000 0.1000000000 0.1000000000 0.1000000000 0.1000000000 0.1000000000 0.1000000000 0.1000000000 0.1000000000 0.1000000000 0.1000000000 0.1000000000 0.1000000000 0.1000000000 0.1000000000 0.1000000000 0.1000000000 0.1000000000 0.1000000000 0.1000000000 0.1000000000 0.1000000000 0.1000000000 0.1000000000 0.1000000000 0.1000000000 0.1000000000 0.1000000000 0.1000000000 0.1000000000 0.1000000000 0.1000000000 0.1000000000 0.1000000000 0.1000000000 0.1000000000 0.1000000000 0.1000000000 0.1000000000 0.1000000000 0.1000000000 0.1000000000 0.1000000000 0.1000000000 0.1000000000 0.1000000000 0.1000000000 0.1000000000 0.1000000000 0.1000000000 0.1000000000 0.1000000000 0.1000000000 0.1000000000 0.1000000000 0.1000000000 0.1000000000 0.1000000000 0.1000000000 0.1000000000 0.1000000000 0.1000000000 0.1000000000 0.1000000000 0.1000000000 0.1000000000 0.1000000000 0.1000000000 0.1000000000 0.1000000000 0.1000000000 0.1000000000 0.1000000000 0.1000000000 0.1000000000 0.1000000000 0.1000000000 0.1000000000 0.1000000000 0.1000000000 0.1000000000 0.1000000000 0.1000000000 0.1000000000 0.1000000000 0.1000000000 0.1000000000 0.1000000000 0.1000000000 0.1000000000 0.1000000000 0.1000000000 0.1000000000 0.1000000000 0.1000000000 0.1000000000 0.1000000000 0.1000000000 0.1000000000 0.1000000000 0.1000000000 0.1000000000 0.1000000000 0.1000000000 0.1000000000 0.1000000000 0.1000000000 0.1000000000 0.1000000000 0.1000000000 0.1000000000 0.1000000000 0.1000000000 0.1000000000 0.1000000000 0.1000000000 0.1000000000 0.1000000000 0.1000000000 0.1000000000 0.1000000000 0.1000000000 0.1000000000 0.1000000000 0.1000000000 0.1000000000 0.1000000000 0.1000000000 0.1000000000 0.1000000000 0.1000000000 0.1000000000 0.1000000000 0.1000000000 0.1000000000 0.1000000000 0.1000000000 0.1000000000 0.1000000000 0.1000000000 0.1000000000 0.1000000000 0.1000000000 0.1000000000 0.1000000000 0.1000000000 0.1000000000 0.1000000000 0.1000000000 0.1000000000 0.1000000000 0.1000000000 0.1000000000 0.1000000000 0.1000000000 0.1000000000 0.1000000000 0.1000000000 0.1000000000 0.1000000000 0.1000000000 0.1000000000 0.1000000000 0.1000000000 0.1000000000 0.1000000000 0.1000000000 0.1000000000 0.1000000000 0.1000000000 0.1000000000 0.1000000000 0.1000000000 0.1000000000 0.1000000000 0.1000000000 0.1000000000 0.1000000000 0.1000000000 0.1000000000 0.1000000000 0.1000000000 0.1000000000 0.1000000000 0.1000000000 0.1000000000 0.1000000000 0.1000000000 0.1000000000 0.1000000000 0.1000000000 0.1000000000 0.1000000000 0.1000000000 0.1000000000 0.1000000000 0.1000000000 0.1000000000 0.1000000000 0.1000000000 0.1000000000 0.1000000000 0.1000000000 0.1000000000 0.1000000000 0.1000000000 0.1000000000 0.1000000000 0.1000000000 0.1000000000 0.1000000000 0.1000000000 0.1000000000 0.1000000000 0.1000000000 0.1000000000 0.1000000000 0.1000000000 0.1000000000 0.1000000000 0.1000000000 0.1000000000 0.1000000000 0.1000000000 0.1000000000 0.1000000000 0.1000000000 0.1000000000 0.1000000000 0.1000000000 0.1000000000 0.1000000000 0.1000000000 0.1000000000 0.1000000000 0.1000000000 0.1000000000 0.1000000000 0.1000000000 0.1000000000 0.1000000000 0.1000000000 0.1000000000 0.1000000000 0.1000000000 0.1000000000 0.1000000000 0.1000000000 0.1000000000 0.1000000000 0.1000000000 0.1000000000 0.1000000000 0.1000000000 0.1000000000 0.1000000000 0.1000000000 0.1000000000 0.1000000000 0.1000000000 0.1000000000 0.1000000000 0.1000000000 0.1000000000 0.1000000000 0.1000000000 0.1000000000 0.1000000000 0.1000000000 0.1000000000 0.1000000000 0.1000000000 0.1000000000 0.1000000000 0.1000000000 0.1000000000 0.1000000000 0.1000000000 0.1000000000 0.1000000000 0.1000000000 0.1000000000 0.1000000000 0.1000000000 0.1000000000 0.1000000000 0.1000000000 0.1000000000 0.1000000000 0.1000000000 0.1000000000 0.1000000000 0.1000000000 0.1000000000 0.1000000000 0.1000000000 0.1000000000 0.1000000000 0.1000000000 0.1000000000 0.1000000000 0.1000000000 0.1000000000 0.1000000000 0.1000000000 0.1000000000 0.1000000000 0.1000000000 0.1000000000 0.1000000000 0.1000000000 0.1000000000 0.1000000000 0.1000000000 0.1000000000 0.1000000000 0.1000000000 0.1000000000 0.1000000000 0.1000000000 0.1000000000 0.1000000000 0.1000000000 0.1000000000 0.1000000000 0.1000000000 0.1000000000 0.1000000000 0.1000000000 0.1000000000 0.1000000000 0.1000000000 0.1000000000 0.1000000000 0.1000000000 0.1000000000 0.1000000000 0.1000000000 0.1000000000 0.1000000000 0.1000000000 0.1000000000 0.1000000000 0.1000000000 0.1000000000 0.1000000000 0.1000000000 0.1000000000 0.1000000000 0.1000000000 0.1000000000 0.1000000000 0.1000000000 0.1000000000 0.1000000000 0.1000000000 0.1000000000 0.1000000000 0.1000000000 0.1000000000 0.1000000000 0.1000000000 0.1000000000 0.1000000000 0.1000000000 0.1000000000 0.1000000000 0.1000000000 0.1000000000 0.1000000000 0.1000000000 0.1000000000 0.1000000000 0.1000000000 0.1000000000 0.1000000000 0.1000000000 0.1000000000 0.1000000000 0.1000000000 0.1000000000 0.1000000000 0.1000000000 0.1000000000 0.1000000000 0.1000000000 0.1000000000 0.1000000000 0.1000000000 0.1000000000 0.1000000000 0.1000000000 0.1000000000 0.1000000000 0.1000000000 0.1000000000 0.1000000000 0.1000000000 0.1000000000 0.1000000000 0.1000000000 0.1000000000 0.1000000000 0.1000000000 0.1000000000 0.1000000000 0.1000000000 0.1000000000 0.1000000000 0.1000000000 0.1000000000 0.1000000000 0.1000000000 0.1000000000 0.1000000000 0.1000000000 0.1000000000 0.1000000000 0.1000000000 0.1000000000 0.1000000000 0.1000000000 0.1000000000 0.1000000000 0.1000000000 0.1000000000 0.1000000000 0.1000000000 0.1000000000 0.1000000000 0.1000000000 0.1000000000 0.1000000000 0.1000000000 0.1000000000 0.1000000000 0.1000000000 0.1000000000 0.1000000000 0.1000000000 0.1000000000 0.1000000000 0.1000000000 0.1000000000 0.1000000000 0.1000000000 0.1000000000 0.1000000000 0.1000000000 0.1000000000 0.1000000000 0.1000000000 0.1000000000 0.1000000000 0.1000000000 0.1000000000 0.1000000000 0.1000000000 0.1000000000 0.1000000000 0.1000000000 0.1000000000 0.1000000000 0.1000000000 0.1000000000 0.1000000000 0.1000000000 0.1000000000 0.1000000000 0.1000000000 0.1000000000 0.1000000000 0.1000000000 0.1000000000 0.1000000000 0.1000000000 0.1000000000 0.1000000000 0.1000000000 0.1000000000 0.1000000000 0.1000000000 0.1000000000 0.1000000000 0.1000000000 0.1000000000 0.1000000000 0.1000000000 0.1000000000 0.1000000000 0.1000000000 0.1000000000 0.1000000000 0.1000000000 0.1000000000 0.1000000000 0.1000000000 0.1000000000 0.1000000000 0.1000000000 0.1000000000 0.1000000000 0.1000000000 0.1000000000 0.1000000000 0.1000000000 0.1000000000 0.1000000000 0.1000000000 0.1000000000 0.1000000000 0.1000000000 0.1000000000 0.1000000000 0.1000000000 0.1000000000 0.1000000000 0.1000000000 0.1000000000 0.1000000000 0.1000000000 0.1000000000 0.1000000000 0.1000000000 0.1000000000 0.1000000000 0.1000000000 0.1000000000 0.1000000000 0.1000000000 0.1000000000 0.1000000000 0.1000000000 0.1000000000 0.1000000000 0.1000000000 0.1000000000 0.1000000000 0.1000000000 0.1000000000 0.1000000000 0.1000000000 0.1000000000 0.1000000000 0.1000000000 0.1000000000 0.1000000000 0.1000000000 0.1000000000 0.1000000000 0.1000000000 0.1000000000 0.1000000000 0.1000000000 0.1000000000 0.1000000000 0.1000000000 0.1000000000 0.1000000000 0.1000000000 0.1000000000 0.1000000000 0.1000000000 0.1000000000 0.1000000000 0.1000000000 0.1000000000 0.1000000000 0.1000000000 0.1000000000 0.1000000000 0.1000000000 0.1000000000 0.1000000000 0.1000000000 0.1000000000 0.1000000000 0.1000000000 0.1000000000 0.1000000000 0.1000000000 0.1000000000 0.1000000000 0.1000000000 0.1000000000 0.1000000000 0.1000000000 0.1000000000 0.1000000000 0.1000000000 0.1000000000 0.1000000000 0.1000000000 0.1000000000 0.1000000000 0.1000000000 0.1000000000 0.1000000000 0.1000000000 0.1000000000 0.1000000000 0.1000000000 0.1000000000 0.1000000000 0.1000000000 0.1000000000 0.1000000000 0.1000000000 0.1000000000 0.1000000000 0.1000000000 0.1000000000 0.1000000000 0.1000000000 0.1000000000 0.1000000000 0.1000000000 0.1000000000 0.1000000000 0.1000000000 0.1000000000 0.1000000000 0.1000000000 0.1000000000 0.1000000000 0.1000000000 0.1000000000 0.1000000000 0.1000000000 0.1000000000 0.1000000000 0.1000000000 0.1000000000 0.1000000000 0.1000000000 0.1000000000 0.1000000000 0.1000000000 0.1000000000 0.1000000000 0.1000000000 0.1000000000 0.1000000000 0.1000000000 0.1000000000 0.1000000000 0.1000000000 0.1000000000 0.1000000000 0.1000000000 0.1000000000 0.1000000000 0.1000000000 0.1000000000 0.1000000000 0.1000000000 0.1000000000 0.1000000000 0.1000000000 0.1000000000 0.1000000000 0.1000000000 0.1000000000 0.1000000000 0.1000000000 0.1000000000 0.1000000000 0.1000000000 0.1000000000 0.1000000000 0.1000000000 0.1000000000 0.1000000000 0.1000000000 0.1000000000 0.1000000000 0.1000000000 0.1000000000 0.1000000000 0.1000000000 0.1000000000 0.1000000000 0.1000000000 0.1000000000 0.1000000000 0.1000000000 0.1000000000 0.1000000000 0.1000000000 0.1000000000 0.1000000000 0.1000000000 0.1000000000 0.1000000000 0.1000000000 0.1000000000 0.1000000000 0.1000000000 0.1000000000 0.1000000000 0.1000000000 0.1000000000 0.1000000000 0.1000000000 0.1000000000 0.1000000000 0.1000000000 0.1000000000 0.1000000000 0.1000000000 0.1000000000 0.1000000000 0.1000000000 0.1000000000 0.1000000000 0.1000000000 0.1000000000 0.1000000000 0.1000000000 0.1000000000 0.1000000000 0.1000000000 0.1000000000 0.1000000000 0.1000000000 0.1000000000 0.1000000000 0.1000000000 0.1000000000 0.1000000000 0.1000000000 0.1000000000 0.1000000000 0.1000000000 0.1000000000 0.1000000000 0.1000000000 0.1000000000 0.1000000000 0.1000000000 0.1000000000 0.1000000000 0.1000000000 0.1000000000 0.1000000000 0.1000000000 0.1000000000 0.1000000000 0.1000000000 0.1000000000 0.1000000000 0.1000000000 0.1000000000 0.1000000000 0.1000000000 0.1000000000 0.1000000000 0.1000000000 0.1000000000 0.1000000000 0.1000000000 0.1000000000 0.1000000000 0.1000000000 0.1000000000 0.1000000000 0.1000000000 0.1000000000 0.1000000000 0.1000000000 0.1000000000 0.1000000000 0.1000000000 0.1000000000 0.1000000000 0.1000000000 0.1000000000 0.1000000000 0.1000000000 0.1000000000 0.1000000000 0.1000000000 0.1000000000 0.1000000000 0.1000000000 0.1000000000 0.1000000000 0.1000000000 0.1000000000 0.1000000000 0.1000000000 0.1000000000 0.1000000000 0.1000000000 0.1000000000 0.1000000000 0.1000000000 0.1000000000 0.1000000000 0.1000000000 0.1000000000 0.1000000000 0.1000000000 0.1000000000 0.1000000000 0.1000000000 0.1000000000 0.1000000000 0.1000000000 0.1000000000 0.1000000000 0.1000000000 0.1000000000 0.1000000000 0.1000000000 0.1000000000 0.1000000000 0.1000000000 0.1000000000 0.1000000000 0.1000000000 0.1000000000 0.1000000000 0.1000000000 0.1000000000 0.1000000000 0.1000000000 0.1000000000 0.1000000000 0.1000000000 0.1000000000 0.1000000000 0.1000000000 0.1000000000 0.1000000000 0.1000000000 0.1000000000 0.1000000000 0.1000000000 0.1000000000 0.1000000000 0.1000000000 0.1000000000 0.1000000000 0.1000000000 0.1000000000 0.1000000000 0.1000000000 0.1000000000 0.1000000000 0.1000000000 0.1000000000 0.10000000