<?xml version="1.0"?>
<VTKFile type="UnstructuredGrid" version="0.1" byte_order="LittleEndian">
  <UnstructuredGrid>
    <FieldData>
      <DataArray type="Float32" Name="TIME"  NumberOfTuples="1" format="ascii"> 2.1500000000 </DataArray>
      <DataArray type="Int32"   Name="STEP"  NumberOfTuples="1" format="ascii"> 537500 </DataArray>
    </FieldData>
    <Piece NumberOfPoints="11600" NumberOfCells="11600">
      <Points>
        <DataArray type="Float32" NumberOfComponents="3" format="ascii">
 -0.3655696852 -0.7212908543 0.0000008916 -0.1656069495 -0.7174303026 0.0000008784 0.0343557890 -0.7135697510 0.0000008648 0.2343185249 -0.7097091992 0.0000008484 0.4342812635 -0.7058486470 0.0000008373 0.6342440003 -0.7019880953 0.0000008297 0.8342067371 -0.6981275434 0.0000008269 1.0341694750 -0.6942669917 0.0000008300 1.2341322113 -0.6904064398 0.0000008399 1.4340949492 -0.6865458878 0.0000008608 1.6340576860 -0.6826853359 0.0000008858 1.8340204230 -0.6788247842 0.0000009137 2.0339831609 -0.6749642325 0.0000009430 2.2339458975 -0.6711036807 0.0000009678 2.4339086356 -0.6672431286 0.0000009965 2.6338713727 -0.6633825768 0.0000010238 2.8338341096 -0.6595220250 0.0000010490 3.0337968477 -0.6556614733 0.0000010713 3.2337595844 -0.6518009214 0.0000010833 3.4337223225 -0.6479403693 0.0000010909 3.6336850595 -0.6440798175 0.0000010927 3.8336477967 -0.6402192656 0.0000010882 4.0336105347 -0.6363587139 0.0000010780 4.2335732717 -0.6324981620 0.0000010584 4.4335360096 -0.6286376099 0.0000010351 4.6334987469 -0.6247770581 0.0000010102 4.8334614840 -0.6209165061 0.0000009850 5.0334242222 -0.6170559541 0.0000009603 5.2333869590 -0.6131954020 0.0000009383 5.4333496971 -0.6093348497 0.0000009155 5.6333124342 -0.6054742976 0.0000008931 5.8332751713 -0.6016137454 0.0000008707 6.0332379092 -0.5977531934 0.0000008482 6.2332006460 -0.5938926411 0.0000008255 6.4331633838 -0.5900320888 0.0000008011 6.6331261208 -0.5861715366 0.0000007749 6.8330888577 -0.5823109844 0.0000007462 7.0330515954 -0.5784504324 0.0000007141 7.2330143321 -0.5745898801 0.0000006745 7.4329770699 -0.5707293277 0.0000006285 7.6329398067 -0.5668687754 0.0000005768 7.8329025435 -0.5630082232 0.0000005187 8.0328652811 -0.5591476711 0.0000004544 8.2328280177 -0.5552871190 0.0000003803 8.4327907553 -0.5514265665 0.0000002998 8.6327534921 -0.5475660144 0.0000002165 8.8327162290 -0.5437054622 0.0000001326 9.0326789668 -0.5398449101 0.0000000503 9.2326417034 -0.5359843579 -0.0000000238 9.4326044411 -0.5321238053 -0.0000000893 9.6325671779 -0.5282632531 -0.0000001459 9.8325299148 -0.5244027008 -0.0000001916 10.0324926523 -0.5205421484 -0.0000002263 10.2324553890 -0.5166815961 -0.0000002377 10.4324181264 -0.5128210435 -0.0000002372 10.6323808633 -0.5089604911 -0.0000002265 10.8323436000 -0.5050999387 -0.0000002070 11.0323063378 -0.5012393865 -0.0000001811 11.2322690742 -0.4973788342 -0.0000001459 11.4322318120 -0.4935182817 -0.0000001177 11.6321945487 -0.4896577294 -0.0000000957 11.8321572854 -0.4857971771 -0.0000000836 12.0321200234 -0.4819366249 -0.0000000837 12.2320827598 -0.4780760723 -0.0000001061 12.4320454981 -0.4742155197 -0.0000001465 12.6320082346 -0.4703549675 -0.0000002075 12.8319709724 -0.4664944141 -0.0000002787 13.0319337104 -0.4626338618 -0.0000003560 13.2318964469 -0.4587733092 -0.0000004441 13.4318591869 -0.4549127563 -0.0000005315 13.6318219234 -0.4510522013 -0.0000006213 13.8654164516 -0.4386930133 0.0000000000 14.0654150798 -0.4394335921 0.0000000000 14.2654137079 -0.4401741708 0.0000000000 14.4654123387 -0.4409147489 0.0000000000 14.6654109670 -0.4416553279 0.0000000000 14.8654095964 -0.4423959061 -0.0000000000 15.0654082257 -0.4431364851 -0.0000000000 15.2654068541 -0.4438770636 -0.0000000000 15.4654054844 -0.4446176422 -0.0000000000 15.6654041129 -0.4453582210 -0.0000000000 15.8654027426 -0.4460987996 -0.0000000000 16.0654013719 -0.4468393778 -0.0000000000 16.3351301287 -0.3307449997 -0.0000000015 16.5350740158 -0.3260076978 -0.0000000015 16.7350179015 -0.3212703968 -0.0000000015 16.9349617895 -0.3165330955 -0.0000000015 17.1349056762 -0.3117957945 -0.0000000016 17.3348495628 -0.3070584934 -0.0000000016 17.5347934506 -0.3023211926 -0.0000000016 17.7347373368 -0.2975838917 -0.0000000016 17.9346812244 -0.2928465907 -0.0000000016 18.1346251113 -0.2881092898 -0.0000000016 18.3345689981 -0.2833719889 -0.0000000015 18.5345128863 -0.2786346882 -0.0000000014 18.7344567724 -0.2738973877 -0.0000000013 18.9344006608 -0.2691600865 -0.0000000011 19.1343445478 -0.2644227856 -0.0000000009 19.3342884347 -0.2596854846 -0.0000000007 19.5342323212 -0.2549481834 -0.0000000004 -0.2689316527 -0.5461877697 0.0000008214 -0.0689689168 -0.5423272185 0.0000008096 0.1309938209 -0.5384666664 0.0000007975 0.3309565588 -0.5346061146 0.0000007869 0.5309192957 -0.5307455626 0.0000007795 0.7308820326 -0.5268850106 0.0000007763 0.9308447695 -0.5230244586 0.0000007784 1.1308075071 -0.5191639067 0.0000007873 1.3307702448 -0.5153033550 0.0000008058 1.5307329817 -0.5114428031 0.0000008308 1.7306957187 -0.5075822512 0.0000008598 1.9306584557 -0.5037216993 0.0000008913 2.1306211933 -0.4998611474 0.0000009233 2.3305839311 -0.4960005957 0.0000009555 2.5305466681 -0.4921400438 0.0000009873 2.7305094052 -0.4882794918 0.0000010174 2.9304721423 -0.4844189399 0.0000010445 3.1304348800 -0.4805583880 0.0000010664 3.3303976177 -0.4766978363 0.0000010797 3.5303603549 -0.4728372844 0.0000010867 3.7303230922 -0.4689767325 0.0000010871 3.9302858295 -0.4651161806 0.0000010810 4.1302485671 -0.4612556287 0.0000010679 4.3302113049 -0.4573950770 0.0000010474 4.5301740421 -0.4535345250 0.0000010235 4.7301367794 -0.4496739730 0.0000009983 4.9300995167 -0.4458134210 0.0000009729 5.1300622544 -0.4419528689 0.0000009482 5.3300249922 -0.4380923167 0.0000009243 5.5299877294 -0.4342317647 0.0000009006 5.7299504666 -0.4303712125 0.0000008772 5.9299132038 -0.4265106604 0.0000008540 6.1298759414 -0.4226501081 0.0000008307 6.3298386789 -0.4187895558 0.0000008069 6.5298014159 -0.4149290036 0.0000007817 6.7297641531 -0.4110684515 0.0000007547 6.9297268901 -0.4072078993 0.0000007249 7.1296896275 -0.4033473470 0.0000006907 7.3296523649 -0.3994867946 0.0000006492 7.5296151019 -0.3956262424 0.0000006017 7.7295778389 -0.3917656902 0.0000005480 7.9295405758 -0.3879051380 0.0000004876 8.1295033131 -0.3840445857 0.0000004196 8.3294660505 -0.3801840334 0.0000003424 8.5294287873 -0.3763234813 0.0000002601 8.7293915244 -0.3724629291 0.0000001754 8.9293542613 -0.3686023770 0.0000000906 9.1293169987 -0.3647418247 0.0000000089 9.3292797360 -0.3608812723 -0.0000000645 9.5292424730 -0.3570207201 -0.0000001297 9.7292052100 -0.3531601678 -0.0000001851 9.9291679469 -0.3492996155 -0.0000002292 10.1291306842 -0.3454390630 -0.0000002590 10.3290934215 -0.3415785104 -0.0000002699 10.5290561584 -0.3377179581 -0.0000002685 10.7290188954 -0.3338574059 -0.0000002571 10.9289816323 -0.3299968536 -0.0000002375 11.1289443695 -0.3261363012 -0.0000002116 11.3289071069 -0.3222757489 -0.0000001839 11.5288698438 -0.3184151966 -0.0000001603 11.7288325808 -0.3145546444 -0.0000001443 11.9287953175 -0.3106940920 -0.0000001391 12.1287580552 -0.3068335395 -0.0000001487 12.3287207926 -0.3029729875 -0.0000001794 12.5286835298 -0.2991124347 -0.0000002257 12.7286462674 -0.2952518824 -0.0000002883 12.9286090042 -0.2913913300 -0.0000003595 13.1285717423 -0.2875307768 -0.0000004376 13.3285344799 -0.2836702251 -0.0000005216 13.5284972173 -0.2798096713 -0.0000006082 13.7660584947 -0.2651188337 0.0000000000 13.9660571249 -0.2658594106 0.0000000000 14.1660557540 -0.2665999891 0.0000000000 14.3660543832 -0.2673405681 0.0000000000 14.5660530124 -0.2680811465 0.0000000000 14.7660516416 -0.2688217253 -0.0000000000 14.9660502706 -0.2695623040 -0.0000000000 15.1660488996 -0.2703028825 -0.0000000000 15.3660475292 -0.2710434616 -0.0000000000 15.5660461582 -0.2717840397 -0.0000000000 15.7660447877 -0.2725246181 -0.0000000000 15.9660434142 -0.2732651990 -0.0000000000 16.2310555625 -0.1599571664 -0.0000000014 16.4309994480 -0.1552198645 -0.0000000014 16.6309433353 -0.1504825627 -0.0000000013 16.8308872227 -0.1457452616 -0.0000000014 17.0308311096 -0.1410079604 -0.0000000014 17.2307749965 -0.1362706594 -0.0000000014 17.4307188834 -0.1315333586 -0.0000000014 17.6306627708 -0.1267960574 -0.0000000014 17.8306066580 -0.1220587565 -0.0000000014 18.0305505450 -0.1173214557 -0.0000000013 18.2304944320 -0.1125841550 -0.0000000013 18.4304383191 -0.1078468545 -0.0000000012 18.6303822067 -0.1031095533 -0.0000000011 18.8303260943 -0.0983722527 -0.0000000009 19.0302699813 -0.0936349518 -0.0000000007 19.2302138684 -0.0888976508 -0.0000000005 19.4301577554 -0.0841603499 -0.0000000002 19.6301016414 -0.0794230488 0.0000000000 -0.3722563573 -0.3749452361 0.0000007616 -0.1722936209 -0.3710846844 0.0000007520 0.0276691171 -0.3672241327 0.0000007424 0.2276318531 -0.3633635808 0.0000007337 0.4275945912 -0.3595030288 0.0000007273 0.6275573281 -0.3556424768 0.0000007242 0.8275200652 -0.3517819249 0.0000007258 1.0274828029 -0.3479213731 0.0000007333 1.2274455394 -0.3440608209 0.0000007493 1.4274082771 -0.3402002693 0.0000007737 1.6273710143 -0.3363397174 0.0000008034 1.8273337513 -0.3324791655 0.0000008368 2.0272964889 -0.3286186138 0.0000008725 2.2272592256 -0.3247580616 0.0000009093 2.4272219634 -0.3208975101 0.0000009461 2.6271847006 -0.3170369582 0.0000009815 2.8271474379 -0.3131764063 0.0000010144 3.0271101755 -0.3093158544 0.0000010431 3.2270729124 -0.3054553024 0.0000010645 3.4270356502 -0.3015947506 0.0000010774 3.6269983876 -0.2977341987 0.0000010833 3.8269611249 -0.2938736468 0.0000010821 4.0269238625 -0.2900130950 0.0000010741 4.2268865997 -0.2861525430 0.0000010582 4.4268493373 -0.2822919912 0.0000010363 4.6268120747 -0.2784314393 0.0000010117 4.8267748120 -0.2745708873 0.0000009859 5.0267375498 -0.2707103352 0.0000009599 5.2267002867 -0.2668497832 0.0000009343 5.4266630245 -0.2629892310 0.0000009090 5.6266257618 -0.2591286789 0.0000008842 5.8265884990 -0.2552681267 0.0000008598 6.0265512367 -0.2514075
[...]
      <PointData Scalars="radius">
        <DataArray type="Float32" Name="radius" format="ascii">
 0.1000000000 0.1000000000 0.1000000000 0.1000000000 0.1000000000 0.1000000000 0.1000000000 0.1000000000 0.1000000000 0.1000000000 0.1000000000 0.1000000000 0.1000000000 0.1000000000 0.1000000000 0.1000000000 0.1000000000 0.1000000000 0.1000000000 0.1000000000 0.1000000000 0.1000000000 0.1000000000 0.1000000000 0.1000000000 0.1000000000 0.1000000000 0.1000000000 0.1000000000 0.1000000000 0.1000000000 0.1000000000 0.1000000000 0.1000000000 0.1000000000 0.1000000000 0.1000000000 0.1000000000 0.1000000000 0.1000000000 0.1000000000 0.1000000000 0.1000000000 0.1000000000 0.1000000000 0.1000000000 0.1000000000 0.1000000000 0.1000000000 0.1000000000 0.1000000000 0.1000000000 0.1000000000 0.1000000000 0.1000000000 0.1000000000 0.1000000000 0.1000000000 0.1000000000 0.1000000000 0.1000000000 0.1000000000 0.1000000000 0.1000000000 0.1000000000 0.1000000000 0.1000000000 0.1000000000 0.1000000000 0.1000000000 0.1000000000 0.1000000000 0.1000000000 0.1000000000 0.1000000000 0.1000000000 0.1000000000 0.1000000000 0.1000000000 0.1000000000 0.1000000000 0.1000000000 0.1000000000 0.1000000000 0.1000000000 0.1000000000 0.1000000000 0.1000000000 0.1000000000 0.1000000000 0.1000000000 0.1000000000 0.1000000000 0.1000000000 0.1000000000 0.1000000000 0.1000000000 0.1000000000 0.1000000000 0.1000000000 0.1000000000 0.1000000000 0.1000000000 0.1000000000 0.1000000000 0.1000000000 0.1000000000 0.1000000000 0.1000000000 0.1000000000 0.1000000000 0.1000000000 0.1000000000 0.1000000000 0.1000000000 0.1000000000 0.1000000000 0.1000000000 0.1000000000 0.1000000000 0.1000000000 0.1000000000 0.1000000000 0.1000000000 0.1000000000 0.1000000000 0.1000000000 0.1000000000 0.1000000000 0.1000000000 0.1000000000 0.1000000000 0.1000000000 0.1000000000 0.1000000000 0.1000000000 0.1000000000 0.1000000000 0.1000000000 0.1000000000 0.1000000000 0.1000000000 0.1000000000 0.1000000000 0.1000000000 0.1000000000 0.1000000000 0.1000000000 0.1000000000 0.1000000000 0.1000000000 0.1000000000 0.1000000000 0.1000000000 0.1000000000 0.1000000000 0.1000000000 0.1000000000 0.1000000000 0.1000000000 0.1000000000 0.1000000000 0.1000000000 0.1000000000 0.1000000000 0.1000000000 0.1000000000 0.1000000000 0.1000000000 0.1000000000 0.1000000000 0.1000000000 0.1000000000 0.1000000000 0.1000000000 0.1000000000 0.1000000000 0.1000000000 0.1000000000 0.1000000000 0.1000000000 0.1000000000 0.1000000000 0.1000000000 0.1000000000 0.1000000000 0.1000000000 0.1000000000 0.1000000000 0.1000000000 0.1000000000 0.1000000000 0.1000000000 0.1000000000 0.1000000000 0.1000000000 0.1000000000 0.1000000000 0.1000000000 0.1000000000 0.1000000000 0.1000000000 0.1000000000 0.1000000000 0.1000000000 0.1000000000 0.1000000000 0.1000000000 0.1000000000 0.1000000000 0.1000000000 0.1000000000 0.1000000000 0.1000000000 0.1000000000 0.1000000000 0.1000000000 0.1000000000 0.1000000000 0.1000000000 0.1000000000 0.1000000000 0.1000000000 0.1000000000 0.1000000000 0.1000000000 0.1000000000 0.1000000000 0.1000000000 0.1000000000 0.1000000000 0.1000000000 0.1000000000 0.1000000000 0.1000000000 0.1000000000 0.1000000000 0.1000000000 0.1000000000 0.1000000000 0.1000000000 0.1000000000 0.1000000000 0.1000000000 0.1000000000 0.1000000000 0.1000000000 0.1000000000 0.1000000000 0.1000000000 0.1000000000 0.1000000000 0.1000000000 0.1000000000 0.1000000000 0.1000000000 0.1000000000 0.1000000000 0.1000000000 0.1000000000 0.1000000000 0.1000000000 0.1000000000 0.1000000000 0.1000000000 0.1000000000 0.1000000000 0.1000000000 0.1000000000 0.1000000000 0.1000000000 0.1000000000 0.1000000000 0.1000000000 0.1000000000 0.1000000000 0.1000000000 0.1000000000 0.1000000000 0.1000000000 0.1000000000 0.1000000000 0.1000000000 0.1000000000 0.1000000000 0.1000000000 0.1000000000 0.1000000000 0.1000000000 0.1000000000 0.1000000000 0.1000000000 0.1000000000 0.1000000000 0.1000000000 0.1000000000 0.1000000000 0.1000000000 0.1000000000 0.1000000000 0.1000000000 0.1000000000 0.1000000000 0.1000000000 0.1000000000 0.1000000000 0.1000000000 0.1000000000 0.1000000000 0.1000000000 0.1000000000 0.1000000000 0.1000000000 0.1000000000 0.1000000000 0.1000000000 0.1000000000 0.1000000000 0.1000000000 0.1000000000 0.1000000000 0.1000000000 0.1000000000 0.1000000000 0.1000000000 0.1000000000 0.1000000000 0.1000000000 0.1000000000 0.1000000000 0.1000000000 0.1000000000 0.1000000000 0.1000000000 0.1000000000 0.1000000000 0.1000000000 0.1000000000 0.1000000000 0.1000000000 0.1000000000 0.1000000000 0.1000000000 0.1000000000 0.1000000000 0.1000000000 0.1000000000 0.1000000000 0.1000000000 0.1000000000 0.1000000000 0.1000000000 0.1000000000 0.1000000000 0.1000000000 0.1000000000 0.1000000000 0.1000000000 0.1000000000 0.1000000000 0.1000000000 0.1000000000 0.1000000000 0.1000000000 0.1000000000 0.1000000000 0.1000000000 0.1000000000 0.1000000000 0.1000000000 0.1000000000 0.1000000000 0.1000000000 0.1000000000 0.1000000000 0.1000000000 0.1000000000 0.1000000000 0.1000000000 0.1000000000 0.1000000000 0.1000000000 0.1000000000 0.1000000000 0.1000000000 0.1000000000 0.1000000000 0.1000000000 0.1000000000 0.1000000000 0.1000000000 0.1000000000 0.1000000000 0.1000000000 0.1000000000 0.1000000000 0.1000000000 0.1000000000 0.1000000000 0.1000000000 0.1000000000 0.1000000000 0.1000000000 0.1000000000 0.1000000000 0.1000000000 0.1000000000 0.1000000000 0.1000000000 0.1000000000 0.1000000000 0.1000000000 0.1000000000 0.1000000000 0.1000000000 0.1000000000 0.1000000000 0.1000000000 0.1000000000 0.1000000000 0.1000000000 0.1000000000 0.1000000000 0.1000000000 0.1000000000 0.1000000000 0.1000000000 0.1000000000 0.1000000000 0.1000000000 0.1000000000 0.1000000000 0.1000000000 0.1000000000 0.1000000000 0.1000000000 0.1000000000 0.1000000000 0.1000000000 0.1000000000 0.1000000000 0.1000000000 0.1000000000 0.1000000000 0.1000000000 0.1000000000 0.1000000000 0.1000000000 0.1000000000 0.1000000000 0.1000000000 0.1000000000 0.1000000000 0.1000000000 0.1000000000 0.1000000000 0.1000000000 0.1000000000 0.1000000000 0.1000000000 0.1000000000 0.1000000000 0.1000000000 0.1000000000 0.1000000000 0.1000000000 0.1000000000 0.1000000000 0.1000000000 0.1000000000 0.1000000000 0.1000000000 0.1000000000 0.1000000000 0.1000000000 0.1000000000 0.1000000000 0.1000000000 0.1000000000 0.1000000000 0.1000000000 0.1000000000 0.1000000000 0.1000000000 0.1000000000 0.1000000000 0.1000000000 0.1000000000 0.1000000000 0.1000000000 0.1000000000 0.1000000000 0.1000000000 0.1000000000 0.1000000000 0.1000000000 0.1000000000 0.1000000000 0.1000000000 0.1000000000 0.1000000000 0.1000000000 0.1000000000 0.1000000000 0.1000000000 0.1000000000 0.1000000000 0.1000000000 0.1000000000 0.1000000000 0.1000000000 0.1000000000 0.1000000000 0.1000000000 0.1000000000 0.1000000000 0.1000000000 0.1000000000 0.1000000000 0.1000000000 0.1000000000 0.1000000000 0.1000000000 0.1000000000 0.1000000000 0.1000000000 0.1000000000 0.1000000000 0.1000000000 0.1000000000 0.1000000000 0.1000000000 0.1000000000 0.1000000000 0.1000000000 0.1000000000 0.1000000000 0.1000000000 0.1000000000 0.1000000000 0.1000000000 0.1000000000 0.1000000000 0.1000000000 0.1000000000 0.1000000000 0.1000000000 0.1000000000 0.1000000000 0.1000000000 0.1000000000 0.1000000000 0.1000000000 0.1000000000 0.1000000000 0.1000000000 0.1000000000 0.1000000000 0.1000000000 0.1000000000 0.1000000000 0.1000000000 0.1000000000 0.1000000000 0.1000000000 0.1000000000 0.1000000000 0.1000000000 0.1000000000 0.1000000000 0.1000000000 0.1000000000 0.1000000000 0.1000000000 0.1000000000 0.1000000000 0.1000000000 0.1000000000 0.1000000000 0.1000000000 0.1000000000 0.1000000000 0.1000000000 0.1000000000 0.1000000000 0.1000000000 0.1000000000 0.1000000000 0.1000000000 0.1000000000 0.1000000000 0.1000000000 0.1000000000 0.1000000000 0.1000000000 0.1000000000 0.1000000000 0.1000000000 0.1000000000 0.1000000000 0.1000000000 0.1000000000 0.1000000000 0.1000000000 0.1000000000 0.1000000000 0.1000000000 0.1000000000 0.1000000000 0.1000000000 0.1000000000 0.1000000000 0.1000000000 0.1000000000 0.1000000000 0.1000000000 0.1000000000 0.1000000000 0.1000000000 0.1000000000 0.1000000000 0.1000000000 0.1000000000 0.1000000000 0.1000000000 0.1000000000 0.1000000000 0.1000000000 0.1000000000 0.1000000000 0.1000000000 0.1000000000 0.1000000000 0.1000000000 0.1000000000 0.1000000000 0.1000000000 0.1000000000 0.1000000000 0.1000000000 0.1000000000 0.1000000000 0.1000000000 0.1000000000 0.1000000000 0.1000000000 0.1000000000 0.1000000000 0.1000000000 0.1000000000 0.1000000000 0.1000000000 0.1000000000 0.1000000000 0.1000000000 0.1000000000 0.1000000000 0.1000000000 0.1000000000 0.1000000000 0.1000000000 0.1000000000 0.1000000000 0.1000000000 0.1000000000 0.1000000000 0.1000000000 0.1000000000 0.1000000000 0.1000000000 0.1000000000 0.1000000000 0.1000000000 0.1000000000 0.1000000000 0.1000000000 0.1000000000 0.1000000000 0.1000000000 0.1000000000 0.1000000000 0.1000000000 0.1000000000 0.1000000000 0.1000000000 0.1000000000 0.1000000000 0.1000000000 0.1000000000 0.1000000000 0.1000000000 0.1000000000 0.1000000000 0.1000000000 0.1000000000 0.1000000000 0.1000000000 0.1000000000 0.1000000000 0.1000000000 0.1000000000 0.1000000000 0.1000000000 0.1000000000 0.1000000000 0.1000000000 0.1000000000 0.1000000000 0.1000000000 0.1000000000 0.1000000000 0.1000000000 0.1000000000 0.1000000000 0.1000000000 0.1000000000 0.1000000000 0.1000000000 0.1000000000 0.1000000000 0.1000000000 0.1000000000 0.1000000000 0.1000000000 0.1000000000 0.1000000000 0.1000000000 0.1000000000 0.1000000000 0.1000000000 0.1000000000 0.1000000000 0.1000000000 0.1000000000 0.1000000000 0.1000000000 0.1000000000 0.1000000000 0.1000000000 0.1000000000 0.1000000000 0.1000000000 0.1000000000 0.1000000000 0.1000000000 0.1000000000 0.1000000000 0.1000000000 0.1000000000 0.1000000000 0.1000000000 0.1000000000 0.1000000000 0.1000000000 0.1000000000 0.1000000000 0.1000000000 0.1000000000 0.1000000000 0.1000000000 0.1000000000 0.1000000000 0.1000000000 0.1000000000 0.1000000000 0.1000000000 0.1000000000 0.1000000000 0.1000000000 0.1000000000 0.1000000000 0.1000000000 0.1000000000 0.1000000000 0.1000000000 0.1000000000 0.1000000000 0.1000000000 0.1000000000 0.1000000000 0.1000000000 0.1000000000 0.1000000000 0.1000000000 0.1000000000 0.1000000000 0.1000000000 0.1000000000 0.1000000000 0.1000000000 0.1000000000 0.1000000000 0.1000000000 0.1000000000 0.1000000000 0.1000000000 0.1000000000 0.1000000000 0.1000000000 0.1000000000 0.1000000000 0.1000000000 0.1000000000 0.1000000000 0.1000000000 0.1000000000 0.1000000000 0.1000000000 0.1000000000 0.1000000000 0.1000000000 0.1000000000 0.1000000000 0.1000000000 0.1000000000 0.1000000000 0.1000000000 0.1000000000 0.1000000000 0.1000000000 0.1000000000 0.1000000000 0.1000000000 0.1000000000 0.1000000000 0.1000000000 0.1000000000 0.1000000000 0.1000000000 0.1000000000 0.1000000000 0.1000000000 0.1000000000 0.1000000000 0.1000000000 0.1000000000 0.1000000000 0.1000000000 0.1000000000 0.1000000000 0.1000000000 0.1000000000 0.1000000000 0.1000000000 0.1000000000 0.1000000000 0.1000000000 0.1000000000 0.1000000000 0.1000000000 0.1000000000 0.1000000000 0.1000000000 0.1000000000 0.1000000000 0.1000000000 0.1000000000 0.1000000000 0.1000000000 0.1000000000 0.1000000000 0.1000000000 0.1000000000 0.1000000000 0.1000000000 0.1000000000 0.1000000000 0.1000000000 0.1000000000 0.1000000000 0.1000000000 0.1000000000 0.1000000000 0.1000000000 0.1000000000 0.1000000000 0.1000000000 0.1000000000 0.1000000000 0.1000000000 0.1000000000 0.1000000000 0.1000000000 0.1000000000 0.1000000000 0.1000000000 0.1000000000 0.1000000000 0.1000000000 0.1000000000 0.1000000000 0.1000000000 0.1000000000 0.1000000000 0.1000000000 0.1000000000 0.1000000000 0.1000000000 0.1000000000 0.1000000000 0.1000000000 0.1000000000 0.1000000000 0.1000000000 0.1000000000 0.1000000000 0.1000000000 0.1000000000 0.1000000000 0.1000000000 0.1000000000 0.1000000000 0.1000000000 0.1000000000 0.1000000000 0.1000000000 0.1000000000 0.1000000000 0.1000000000 0.1000000000 0.1000000000 0.1000000000 0.1000000000 0.1000000000 0.1000000000 0.1000000000 0.1000000000 0.1000000000 0.1000000000 0.1000000000 0.1000000000 0.1000000000 0.1000000000 0.1000000000 0.1000000000 0.1000000000 0.1000000000 0.1000000000 0.1000000000 0.1000000000 0.1000000000 0.1000000000 0.1000000000 0.1000000000 0.1000000000 0.1000000000 0.1000000000 0.1000000000 0.1000000000 0.1000000000 0.1000000000 0.1000000000 0.1000000000 0.1000000000 0.1000000000 0.1000000000 0.1000000000 0.1000000000 0.1000000000 0.1000000000 0.1000000000 0.1000000000 0.1000000000 0.1000000000 0.1000000000 0.1000000000 0.1000000000 0.1000000000 0.1000000000 0.1000000000 0.1000000000 0.1000000000 0.1000000000 0.1000000000 0.1000000000 0.1000000000 0.1000000000 0.1000000000 0.1000000000 0.1000000000 0.1000000000 0.1000000000 0.1000000000 0.1000000000 0.1000000000 0.1000000000 0.1000000000 0.1000000000 0.1000000000 0.1000000000 0.1000000000 0.1000000000 0.1000000000 0.1000000000 0.1000000000 0.1000000000 0.1000000000 0.1000000000 0.1000000000 0.1000000000 0.1000000000 0.1000000000 0.1000000000 0.1000000000 0.1000000000 0.1000000000 0.1000000000 0.1000000000 0.1000000000 0.1000000000 0.1000000000 0.1000000000 0.1000000000 0.1000000000 0.1000000000 0.1000000000 0.1000000000 0.1000000000 0.1000000000 0.1000000000 0.1000000000 0.1000000000 0.1000000000 0.1000000000 0.1000000000 0.1000000000 0.1000000000 0.1000000000 0.1000000000 0.1000000000 0.1000000000 0.1000000000 0.1000000000 0.1000000000 0.1000000000 0.1000000000 0.1000000000 0.1000000000 0.1000000000 0.1000000000 0.1000000000 0.1000000000 0.1000000000 0.1000000000 0.1000000000 0.1000000000 0.1000000000 0.1000000000 0.1000000000 0.1000000000 0.1000000000 0.1000000000 0.1000000000 0.1000000000 0.1000000000 0.1000000000 0.1000000000 0.1000000000 0.1000000000 0.1000000000 0.1000000000 0.1000000000 0.1000000000 0.1000000000 0.1000000000 0.1000000000 0.1000000000 0.1000000000 0.1000000000 0.1000000000 0.1000000000 0.1000000000 0.1000000000 0.1000000000 0.1000000000 0.1000000000 0.1000000000 0.1000000000 0.1000000000 0.1000000000 0.1000000000 0.1000000000 0.1000000000 0.1000000000 0.1000000000 0.1000000000 0.1000000000 0.1000000000 0.1000000000 0.1000000000 0.1000000000 0.1000000000 0.1000000000 0.1000000000 0.1000000000 0.1000000000 0.1000000000 0.1000000000 0.1000000000 0.1000000000 0.1000000000 0.1000000000 0.1000000000 0.1000000000 0.1000000000 0.1000000000 0.1000000000 0.1000000000 0.1000000000 0.1000000000 0.1000000000 0.1000000000 0.1000000000 0.1000000000 0.1000000000 0.1000000000 0.1000000000 0.1000000000 0.1000000000 0.1000000000 0.1000000000 0.1000000000 0.1000000000 0.1000000000 0.1000000000 0.1000000000 0.1000000000 0.1000000000 0.1000000000 0.1000000000 0.1000000000 0.1000000000 0.1000000000 0.1000000000 0.1000000000 0.1000000000 0.1000000000 0.1000000000 0.1000000000 0.1000000000 0.1000000000 0.1000000000 0.1000000000 0.1000000000 0.1000000000 0.1000000000 0.1000000000 0.1000000000 0.1000000000 0.1000000000 0.1000000000 0.1000000000 0.1000000000 0.1000000000 0.1000000000 0.1000000000 0.1000000000 0.1000000000 0.1000000000 0.1000000000 0.1000000000 0.1000000000 0.1000000000 0.1000000000 0.1000000000 0.1000000000 0.1000000000 0.1000000000 0.1000000000 0.1000000000 0.1000000000 0.1000000000 0.1000000000 0.1000000000 0.1000000000 0.1000000000 0.1000000000 0.1000000000 0.1000000000 0.1000000000 0.1000000000 0.1000000000 0.1000000000 0.1000000000 0.1000000000 0.1000000000 0.1000000000 0.1000000000 0.1000000000 0.1000000000 0.1000000000 0.1000000000 0.1000000000 0.1000000000 0.1000000000 0.1000000000 0.1000000000 0.1000000000 0.1000000000 0.1000000000 0.1000000000 0.1000000000 0.1000000000 0.1000000000 0.1000000000 0.1000000000 0.1000000000 0.1000000000 0.1000000000 0.1000000000 0.1000000000 0.1000000000 0.1000000000 0.1000000000 0.1000000000 0.1000000000 0.1000000000 0.1000000000 0.1000000000 0.1000000000 0.1000000000 0.1000000000 0.1000000000 0.1000000000 0.1000000000 0.1000000000 0.1000000000 0.1000000000 0.1000000000 0.1000000000 0.1000000000 0.1000000000 0.1000000000 0.1000000000 0.1000000000 0.1000000000 0.1000000000 0.1000000000 0.1000000000 0.1000000000 0.1000000000 0.1000000000 0.1000000000 0.1000000000 0.1000000000 0.1000000000 0.1000000000 0.1000000000 0.1000000000 0.1000000000 0.1000000000 0.1000000000 0.1000000000 0.1000000000 0.1000000000 0.1000000000 0.1000000000 0.1000000000 0.1000000000 0.1000000000 0.1000000000 0.1000000000 0.1000000000 0.1000000000 0.1000000000 0.1000000000 0.1000000000 0.1000000000 0.1000000000 0.1000000000 0.1000000000 0.1000000000 0.1000000000 0.1000000000 0.1000000000 0.1000000000 0.1000000000 0.1000000000 0.1000000000 0.1000000000 0.1000000000 0.1000000000 0.1000000000 0.1000000000 0.1000000000 0.1000000000 0.1000000000 0.1000000000 0.1000000000 0.1000000000 0.1000000000 0.1000000000 0.1000000000 0.1000000000 0.1000000000 0.1000000000 0.1000000000 0.1000000000 0.1000000000 0.1000000000 0.1000000000 0.1000000000 0.1000000000 0.1000000000 0.1000000000 0.1000000000 0.1000000000 0.1000000000 0.1000000000 0.1000000000 0.1000000000 0.1000000000 0.1000000000 0.1000000000 0.1000000000 0.1000000000 0.1000000000 0.1000000000 0.1000000000 0.1000000000 0.1000000000 0.1000000000 0.1000000000 0.1000000000 0.1000000000 0.1000000000 0.1000000000 0.1000000000 0.1000000000 0.1000000000 0.1000000000 0.1000000000 0.1000000000 0.1000000000 0.1000000000 0.1000000000 0.1000000000 0.1000000000 0.1000000000 0.1000000000 0.1000000000 0.1000000000 0.1000000000 0.1000000000 0.1000000000 0.1000000000 0.1000000000 0.1000000000 0.1000000000 0.1000000000 0.1000000000 0.1000000000 0.1000000000 0.1000000000 0.1000000000 0.1000000000 0.1000000000 0.1000000000 0.1000000000 0.1000000000 0.1000000000 0.1000000000 0.1000000000 0.1000000000 0.1000000000 0.1000000000 0.1000000000 0.1000000000 0.1000000000 0.1000000000 0.1000000000 0.1000000000 0.1000000000 0.1000000000 0.1000000000 0.1000000000 0.1000000000 0.1000000000 0.1000000000 0.1000000000 0.1000000000 0.1000000000 0.1000000000 0.1000000000 0.1000000000 0.1000000000 0.1000000000 0.1000000000 0.1000000000 0.1000000000 0.1000000000 0.1000000000 0.1000000000 0.1000000000 0.1000000000 0.1000000000 0.1000000000 0.1000000000 0.1000000000 0.1000000000 0.1000000000 0.1000000000 0.1000000000 0.1000000000 0.1000000000 0.1000000000 0.1000000000 0.1000000000 0.1000000000 0.1000000000 0.1000000000 0.1000000000 0.1000000000 0.1000000000 0.1000000000 0.1000000000 0.1000000000 0.1000000000 0.1000000000 0.1000000000 0.1000000000 0.1000000000 0.1000000000 0.1000000000 0.1000000000 0.1000000000 0.1000000000 0.1000000000 0.1000000000 0.1000000000 0.1000000000 0.1000000000 0.1000000000 0.1000000000 0.1000000000 0.1000000000 0.1000000000 0.1000000000 0.1000000000 0.1000000000 0.1000000000 0.1000000000 0.1000000000 0.1000000000 0.1000000000 0.1000000000 0.1000000000 0.1000000000 0.1000000000 0.1000000000 0.1000000000 0.1000000000 0.1000000000 0.1000000000 0.1000000000 0.1000000000 0.1000000000 0.1000000000 0.1000000000 0.1000000000 0.1000000000 0.1000000000 0.1000000000 0.1000000000 0.1000000000 0.1000000000 0.1000000000 0.1000000000 0.1000000000 0.1000000000 0.1000000000 0.1000000000 0.1000000000 0.1000000000 0.1000000000 0.1000000000 0.1000000000 0.1000000000 0.1000000000 0.1000000000 0.1000000000 0.1000000000 0.1000000000 0.1000000000 0.1000000000 0.1000000000 0.1000000000 0.1000000000 0.1000000000 0.1000000000 0.1000000000 0.1000000000 0.1000000000 0.1000000000 0.1000000000 0.1000000000 0.1000000000 0.1000000000 0.1000000000 0.1000000000 0.1000000000 0.1000000000 0.1000000000 0.1000000000 0.1000000000 0.1000000000 0.1000000000 0.1000000000 0.1000000000 0.1000000000 0.1000000000 0.1000000000 0.1000000000 0.1000000000 0.1000000000 0.1000000000 0.1000000000 0.1000000000 0.1000000000 0.1000000000 0.1000000000 0.1000000000 0.1000000000 0.1000000000 0.1000000000 0.1000000000 0.1000000000 0.1000000000 0.1000000000 0.1000000000 0.10000000