<?xml version="1.0"?>
<VTKFile type="UnstructuredGrid" version="0.1" byte_order="LittleEndian">
  <UnstructuredGrid>
    <FieldData>
      <DataArray type="Float32" Name="TIME"  NumberOfTuples="1" format="ascii"> 3.6500000000 </DataArray>
      <DataArray type="Int32"   Name="STEP"  NumberOfTuples="1" format="ascii"> 912500 </DataArray>
    </FieldData>
    <Piece NumberOfPoints="11600" NumberOfCells="11600">
      <Points>
        <DataArray type="Float32" NumberOfComponents="3" format="ascii">
 -0.6857439209 -1.1223464798 0.0000058402 -0.4858251797 -1.1166459029 0.0000056622 -0.2859064382 -1.1109453229 0.0000054821 -0.0859877026 -1.1052447432 0.0000053013 0.1139310357 -1.0995441637 0.0000051324 0.3138497711 -1.0938435874 0.0000049721 0.5137685054 -1.0881430145 0.0000048178 0.7136872399 -1.0824424441 0.0000046663 0.9136059660 -1.0767418746 0.0000045074 1.1135246993 -1.0710413078 0.0000043487 1.3134434311 -1.0653407432 0.0000041888 1.5133621629 -1.0596401807 0.0000040319 1.7132808955 -1.0539396199 0.0000038807 1.9131996201 -1.0482390619 0.0000037266 2.1131183540 -1.0425385045 0.0000035752 2.3130370877 -1.0368379477 0.0000034168 2.5129558216 -1.0311373915 0.0000032500 2.7128745568 -1.0254368359 0.0000030745 2.9127932855 -1.0197362796 0.0000028905 3.1127120199 -1.0140357218 0.0000026873 3.3126307525 -1.0083351623 0.0000024735 3.5125494852 -1.0026346017 0.0000022512 3.7124682197 -0.9969340415 0.0000020271 3.9123869501 -0.9912334784 0.0000018081 4.1123056859 -0.9855329091 0.0000016567 4.3122244212 -0.9798323391 0.0000015515 4.5121431575 -0.9741317672 0.0000014957 4.7120618943 -0.9684311929 0.0000014778 4.9119806239 -0.9627306185 0.0000015033 5.1118993590 -0.9570300447 0.0000015224 5.3118180931 -0.9513294706 0.0000015336 5.5117368269 -0.9456288967 0.0000015297 5.7116555617 -0.9399283258 0.0000015105 5.9115742918 -0.9342277557 0.0000014759 6.1114930270 -0.9285271841 0.0000014482 6.3114117610 -0.9228266124 0.0000014329 6.5113304947 -0.9171260416 0.0000014348 6.7112492292 -0.9114254720 0.0000014526 6.9111679570 -0.9057249040 0.0000014747 7.1110866916 -0.9000243375 0.0000015181 7.3110054258 -0.8943237715 0.0000015649 7.5109241602 -0.8886232044 0.0000016171 7.7108428948 -0.8829226357 0.0000016775 7.9107616215 -0.8772220674 0.0000017499 8.1106803547 -0.8715214992 0.0000018226 8.3105990866 -0.8658209331 0.0000018831 8.5105178190 -0.8601203685 0.0000019191 8.7104365529 -0.8544198044 0.0000019241 8.9103552799 -0.8487192404 0.0000018823 9.1102740140 -0.8430186741 0.0000017855 9.3101927465 -0.8373181072 0.0000016635 9.5101114779 -0.8316175407 0.0000015229 9.7100302093 -0.8259169751 0.0000013730 9.9099489308 -0.8202164118 0.0000012217 10.1098676610 -0.8145158501 0.0000010836 10.3097863897 -0.8088152905 0.0000009590 10.5097051182 -0.8031147329 0.0000008522 10.7096238486 -0.7974141773 0.0000007643 10.9095425711 -0.7917136223 0.0000007052 11.1094613041 -0.7860130693 0.0000006557 11.3093800371 -0.7803125180 0.0000006046 11.5092987715 -0.7746119678 0.0000005452 11.7092175085 -0.7689114165 0.0000004747 11.9091362418 -0.7632108611 0.0000003849 12.1090549810 -0.7575103062 0.0000003062 12.3089737187 -0.7518097508 0.0000002381 12.5088924601 -0.7461091922 0.0000001945 12.7088112045 -0.7404086343 0.0000001648 12.9087299437 -0.7347080718 0.0000001635 13.1086486885 -0.7290075040 0.0000001575 13.3085674516 -0.7233069148 0.0000001592 13.5746100228 -0.7003753751 -0.0000000000 13.7746076821 -0.7013428585 -0.0000000000 13.9746053413 -0.7023103416 -0.0000000000 14.1746030031 -0.7032778242 -0.0000000000 14.3746006625 -0.7042453078 -0.0000000000 14.5745983230 -0.7052127905 0.0000000000 14.7745959834 -0.7061802739 0.0000000000 14.9745936429 -0.7071477569 0.0000000000 15.1745913042 -0.7081152401 0.0000000000 15.3745889638 -0.7090827233 0.0000000000 15.5745866245 -0.7100502064 0.0000000000 15.7745842849 -0.7110176892 0.0000000000 16.0888129277 -0.5280481910 -0.0000001030 16.2886699568 -0.5204873954 0.0000004903 16.4885269778 -0.5129266004 -0.0000015969 16.6883840061 -0.5053658081 -0.0000007052 16.8882410324 -0.4978050211 -0.0000005172 17.0880980586 -0.4902442376 -0.0000003176 17.2879550857 -0.4826834584 -0.0000003218 17.4878121073 -0.4751226859 0.0000008465 17.6876691372 -0.4675619139 0.0000003195 17.8875261672 -0.4600011448 -0.0000008423 18.0873831982 -0.4524403781 -0.0000007900 18.2872402313 -0.4448796122 -0.0000001908 18.4870972618 -0.4373188470 -0.0000001473 18.6869542971 -0.4297580801 0.0000002104 18.8868113331 -0.4221973119 0.0000003052 19.0866683709 -0.4146365413 0.0000004679 19.2865254082 -0.4070757689 0.0000005456 -0.5907213940 -0.9463614846 0.0000055892 -0.3908026546 -0.9406609050 0.0000054149 -0.1908839150 -0.9349603242 0.0000052409 0.0090348237 -0.9292597447 0.0000050709 0.2089535612 -0.9235591666 0.0000049065 0.4088722978 -0.9178585914 0.0000047465 0.6087910328 -0.9121580190 0.0000045885 0.8087097661 -0.9064574482 0.0000044286 1.0086284990 -0.9007568805 0.0000042638 1.2085472318 -0.8950563149 0.0000040969 1.4084659646 -0.8893557513 0.0000039305 1.6083846970 -0.8836551894 0.0000037680 1.8083034286 -0.8779546296 0.0000036086 2.0082221606 -0.8722540724 0.0000034517 2.2081408935 -0.8665535154 0.0000032933 2.4080596269 -0.8608529588 0.0000031309 2.6079783601 -0.8551524024 0.0000029638 2.8078970926 -0.8494518464 0.0000027907 3.0078158246 -0.8437512896 0.0000026046 3.2077345563 -0.8380507307 0.0000024066 3.4076532882 -0.8323501703 0.0000021980 3.6075720200 -0.8266496094 0.0000019837 3.8074907512 -0.8209490482 0.0000017763 4.0074094826 -0.8152484823 0.0000016068 4.2073282157 -0.8095479135 0.0000014838 4.4072469499 -0.8038473430 0.0000014082 4.6071656842 -0.7981467699 0.0000013746 4.8070844183 -0.7924461950 0.0000013720 5.0070031522 -0.7867456215 0.0000013856 5.2069218861 -0.7810450479 0.0000013944 5.4068406203 -0.7753444738 0.0000013910 5.6067593548 -0.7696439013 0.0000013736 5.8066780886 -0.7639433305 0.0000013460 6.0065968220 -0.7582427595 0.0000013180 6.2065155558 -0.7525421880 0.0000013012 6.4064342899 -0.7468416168 0.0000013006 6.6063530237 -0.7411410463 0.0000013165 6.8062717569 -0.7354404770 0.0000013452 7.0061904900 -0.7297399097 0.0000013866 7.2061092234 -0.7240393436 0.0000014338 7.4060279570 -0.7183387772 0.0000014835 7.6059466900 -0.7126382090 0.0000015373 7.8058654219 -0.7069376399 0.0000015976 8.0057841536 -0.7012370718 0.0000016597 8.2057028858 -0.6955365049 0.0000017147 8.4056216184 -0.6898359394 0.0000017503 8.6055403505 -0.6841353750 0.0000017575 8.8054590820 -0.6784348104 0.0000017273 9.0053778135 -0.6727342454 0.0000016468 9.2052965454 -0.6670336791 0.0000015332 9.4052152772 -0.6613331121 0.0000013997 9.6051340081 -0.6556325457 0.0000012544 9.8050527373 -0.6499319804 0.0000011054 10.0049714660 -0.6442314179 0.0000009624 10.2048901953 -0.6385308573 0.0000008309 10.4048089248 -0.6328302989 0.0000007145 10.6047276540 -0.6271297420 0.0000006164 10.8046463829 -0.6214291867 0.0000005394 11.0045651135 -0.6157286337 0.0000004835 11.2044838462 -0.6100280817 0.0000004335 11.4044025799 -0.6043275314 0.0000003803 11.6043213135 -0.5986269803 0.0000003184 11.8042400481 -0.5929264273 0.0000002457 12.0041587843 -0.5872258736 0.0000001679 12.2040775213 -0.5815253186 0.0000000960 12.4039962598 -0.5758247623 0.0000000400 12.6039149996 -0.5701242055 -0.0000000008 12.8038337399 -0.5644236443 -0.0000000267 13.0037524795 -0.5587230807 -0.0000000400 13.2036712204 -0.5530225095 -0.0000000488 13.4754490554 -0.5266885824 0.0000000000 13.6754467167 -0.5276560638 0.0000000000 13.8754443769 -0.5286235468 0.0000000000 14.0754420372 -0.5295910303 0.0000000000 14.2754396974 -0.5305585132 0.0000000000 14.4754373577 -0.5315259965 0.0000000000 14.6754350178 -0.5324934797 0.0000000000 14.8754326779 -0.5334609627 0.0000000000 15.0754303385 -0.5344284463 0.0000000000 15.2754279986 -0.5353959289 0.0000000000 15.4754256592 -0.5363634119 0.0000000000 15.6754233168 -0.5373308972 0.0000000000 15.9823365683 -0.3587473189 -0.0000001540 16.1821935993 -0.3511865240 -0.0000002222 16.3820506292 -0.3436257277 -0.0000006525 16.5819076581 -0.3360649339 -0.0000004367 16.7817646869 -0.3285041438 -0.0000005171 16.9816217152 -0.3209433585 -0.0000003060 17.1814787436 -0.3133825771 -0.0000000476 17.3813357722 -0.3058218004 0.0000002108 17.5811928012 -0.2982610290 0.0000008384 17.7810498318 -0.2907002589 0.0000004726 17.9809068634 -0.2831394913 -0.0000001673 18.1807638953 -0.2755787249 0.0000001510 18.3806209274 -0.2680179586 0.0000002836 18.5804779606 -0.2604571934 -0.0000002648 18.7803349950 -0.2528964266 -0.0000003082 18.9801920309 -0.2453356580 0.0000000779 19.1800490679 -0.2377748868 0.0000008014 19.3799061030 -0.2302141128 0.0000006210 -0.6956176124 -0.7760770679 0.0000055088 -0.4956988705 -0.7703764869 0.0000053400 -0.2957801282 -0.7646759059 0.0000051719 -0.0958613896 -0.7589753254 0.0000050053 0.1040573507 -0.7532747465 0.0000048399 0.3039760894 -0.7475741698 0.0000046762 0.5038948272 -0.7418735954 0.0000045129 0.7038135642 -0.7361730234 0.0000043486 0.9037322958 -0.7304724534 0.0000041800 1.1036510313 -0.7247718869 0.0000040072 1.3035697657 -0.7190713223 0.0000038330 1.5034884997 -0.7133707595 0.0000036607 1.7034072342 -0.7076701989 0.0000034922 1.9033259636 -0.7019696401 0.0000033283 2.1032446980 -0.6962690829 0.0000031671 2.3031634317 -0.6905685257 0.0000030061 2.5030821650 -0.6848679690 0.0000028440 2.7030008986 -0.6791674127 0.0000026793 2.9029196261 -0.6734668557 0.0000025081 3.1028383588 -0.6677662977 0.0000023253 3.3027570904 -0.6620657378 0.0000021319 3.5026758223 -0.6563651766 0.0000019306 3.7025945547 -0.6506646148 0.0000017307 3.9025132801 -0.6449640514 0.0000015523 4.1024320129 -0.6392634848 0.0000014176 4.3023507459 -0.6335629159 0.0000013251 4.5022694795 -0.6278623443 0.0000012743 4.7021882144 -0.6221617707 0.0000012546 4.9021069455 -0.6164611977 0.0000012564 5.1020256808 -0.6107606241 0.0000012588 5.3019444154 -0.6050600504 0.0000012532 5.5018631502 -0.5993594775 0.0000012357 5.7017818858 -0.5936589056 0.0000012095 5.9017006167 -0.5879583346 0.0000011818 6.101
[...]
      <PointData Scalars="radius">
        <DataArray type="Float32" Name="radius" format="ascii">
 0.1000000000 0.1000000000 0.1000000000 0.1000000000 0.1000000000 0.1000000000 0.1000000000 0.1000000000 0.1000000000 0.1000000000 0.1000000000 0.1000000000 0.1000000000 0.1000000000 0.1000000000 0.1000000000 0.1000000000 0.1000000000 0.1000000000 0.1000000000 0.1000000000 0.1000000000 0.1000000000 0.1000000000 0.1000000000 0.1000000000 0.1000000000 0.1000000000 0.1000000000 0.1000000000 0.1000000000 0.1000000000 0.1000000000 0.1000000000 0.1000000000 0.1000000000 0.1000000000 0.1000000000 0.1000000000 0.1000000000 0.1000000000 0.1000000000 0.1000000000 0.1000000000 0.1000000000 0.1000000000 0.1000000000 0.1000000000 0.1000000000 0.1000000000 0.1000000000 0.1000000000 0.1000000000 0.1000000000 0.1000000000 0.1000000000 0.1000000000 0.1000000000 0.1000000000 0.1000000000 0.1000000000 0.1000000000 0.1000000000 0.1000000000 0.1000000000 0.1000000000 0.1000000000 0.1000000000 0.1000000000 0.1000000000 0.1000000000 0.1000000000 0.1000000000 0.1000000000 0.1000000000 0.1000000000 0.1000000000 0.1000000000 0.1000000000 0.1000000000 0.1000000000 0.1000000000 0.1000000000 0.1000000000 0.1000000000 0.1000000000 0.1000000000 0.1000000000 0.1000000000 0.1000000000 0.1000000000 0.1000000000 0.1000000000 0.1000000000 0.1000000000 0.1000000000 0.1000000000 0.1000000000 0.1000000000 0.1000000000 0.1000000000 0.1000000000 0.1000000000 0.1000000000 0.1000000000 0.1000000000 0.1000000000 0.1000000000 0.1000000000 0.1000000000 0.1000000000 0.1000000000 0.1000000000 0.1000000000 0.1000000000 0.1000000000 0.1000000000 0.1000000000 0.1000000000 0.1000000000 0.1000000000 0.1000000000 0.1000000000 0.1000000000 0.1000000000 0.1000000000 0.1000000000 0.1000000000 0.1000000000 0.1000000000 0.1000000000 0.1000000000 0.1000000000 0.1000000000 0.1000000000 0.1000000000 0.1000000000 0.1000000000 0.1000000000 0.1000000000 0.1000000000 0.1000000000 0.1000000000 0.1000000000 0.1000000000 0.1000000000 0.1000000000 0.1000000000 0.1000000000 0.1000000000 0.1000000000 0.1000000000 0.1000000000 0.1000000000 0.1000000000 0.1000000000 0.1000000000 0.1000000000 0.1000000000 0.1000000000 0.1000000000 0.1000000000 0.1000000000 0.1000000000 0.1000000000 0.1000000000 0.1000000000 0.1000000000 0.1000000000 0.1000000000 0.1000000000 0.1000000000 0.1000000000 0.1000000000 0.1000000000 0.1000000000 0.1000000000 0.1000000000 0.1000000000 0.1000000000 0.1000000000 0.1000000000 0.1000000000 0.1000000000 0.1000000000 0.1000000000 0.1000000000 0.1000000000 0.1000000000 0.1000000000 0.1000000000 0.1000000000 0.1000000000 0.1000000000 0.1000000000 0.1000000000 0.1000000000 0.1000000000 0.1000000000 0.1000000000 0.1000000000 0.1000000000 0.1000000000 0.1000000000 0.1000000000 0.1000000000 0.1000000000 0.1000000000 0.1000000000 0.1000000000 0.1000000000 0.1000000000 0.1000000000 0.1000000000 0.1000000000 0.1000000000 0.1000000000 0.1000000000 0.1000000000 0.1000000000 0.1000000000 0.1000000000 0.1000000000 0.1000000000 0.1000000000 0.1000000000 0.1000000000 0.1000000000 0.1000000000 0.1000000000 0.1000000000 0.1000000000 0.1000000000 0.1000000000 0.1000000000 0.1000000000 0.1000000000 0.1000000000 0.1000000000 0.1000000000 0.1000000000 0.1000000000 0.1000000000 0.1000000000 0.1000000000 0.1000000000 0.1000000000 0.1000000000 0.1000000000 0.1000000000 0.1000000000 0.1000000000 0.1000000000 0.1000000000 0.1000000000 0.1000000000 0.1000000000 0.1000000000 0.1000000000 0.1000000000 0.1000000000 0.1000000000 0.1000000000 0.1000000000 0.1000000000 0.1000000000 0.1000000000 0.1000000000 0.1000000000 0.1000000000 0.1000000000 0.1000000000 0.1000000000 0.1000000000 0.1000000000 0.1000000000 0.1000000000 0.1000000000 0.1000000000 0.1000000000 0.1000000000 0.1000000000 0.1000000000 0.1000000000 0.1000000000 0.1000000000 0.1000000000 0.1000000000 0.1000000000 0.1000000000 0.1000000000 0.1000000000 0.1000000000 0.1000000000 0.1000000000 0.1000000000 0.1000000000 0.1000000000 0.1000000000 0.1000000000 0.1000000000 0.1000000000 0.1000000000 0.1000000000 0.1000000000 0.1000000000 0.1000000000 0.1000000000 0.1000000000 0.1000000000 0.1000000000 0.1000000000 0.1000000000 0.1000000000 0.1000000000 0.1000000000 0.1000000000 0.1000000000 0.1000000000 0.1000000000 0.1000000000 0.1000000000 0.1000000000 0.1000000000 0.1000000000 0.1000000000 0.1000000000 0.1000000000 0.1000000000 0.1000000000 0.1000000000 0.1000000000 0.1000000000 0.1000000000 0.1000000000 0.1000000000 0.1000000000 0.1000000000 0.1000000000 0.1000000000 0.1000000000 0.1000000000 0.1000000000 0.1000000000 0.1000000000 0.1000000000 0.1000000000 0.1000000000 0.1000000000 0.1000000000 0.1000000000 0.1000000000 0.1000000000 0.1000000000 0.1000000000 0.1000000000 0.1000000000 0.1000000000 0.1000000000 0.1000000000 0.1000000000 0.1000000000 0.1000000000 0.1000000000 0.1000000000 0.1000000000 0.1000000000 0.1000000000 0.1000000000 0.1000000000 0.1000000000 0.1000000000 0.1000000000 0.1000000000 0.1000000000 0.1000000000 0.1000000000 0.1000000000 0.1000000000 0.1000000000 0.1000000000 0.1000000000 0.1000000000 0.1000000000 0.1000000000 0.1000000000 0.1000000000 0.1000000000 0.1000000000 0.1000000000 0.1000000000 0.1000000000 0.1000000000 0.1000000000 0.1000000000 0.1000000000 0.1000000000 0.1000000000 0.1000000000 0.1000000000 0.1000000000 0.1000000000 0.1000000000 0.1000000000 0.1000000000 0.1000000000 0.1000000000 0.1000000000 0.1000000000 0.1000000000 0.1000000000 0.1000000000 0.1000000000 0.1000000000 0.1000000000 0.1000000000 0.1000000000 0.1000000000 0.1000000000 0.1000000000 0.1000000000 0.1000000000 0.1000000000 0.1000000000 0.1000000000 0.1000000000 0.1000000000 0.1000000000 0.1000000000 0.1000000000 0.1000000000 0.1000000000 0.1000000000 0.1000000000 0.1000000000 0.1000000000 0.1000000000 0.1000000000 0.1000000000 0.1000000000 0.1000000000 0.1000000000 0.1000000000 0.1000000000 0.1000000000 0.1000000000 0.1000000000 0.1000000000 0.1000000000 0.1000000000 0.1000000000 0.1000000000 0.1000000000 0.1000000000 0.1000000000 0.1000000000 0.1000000000 0.1000000000 0.1000000000 0.1000000000 0.1000000000 0.1000000000 0.1000000000 0.1000000000 0.1000000000 0.1000000000 0.1000000000 0.1000000000 0.1000000000 0.1000000000 0.1000000000 0.1000000000 0.1000000000 0.1000000000 0.1000000000 0.1000000000 0.1000000000 0.1000000000 0.1000000000 0.1000000000 0.1000000000 0.1000000000 0.1000000000 0.1000000000 0.1000000000 0.1000000000 0.1000000000 0.1000000000 0.1000000000 0.1000000000 0.1000000000 0.1000000000 0.1000000000 0.1000000000 0.1000000000 0.1000000000 0.1000000000 0.1000000000 0.1000000000 0.1000000000 0.1000000000 0.1000000000 0.1000000000 0.1000000000 0.1000000000 0.1000000000 0.1000000000 0.1000000000 0.1000000000 0.1000000000 0.1000000000 0.1000000000 0.1000000000 0.1000000000 0.1000000000 0.1000000000 0.1000000000 0.1000000000 0.1000000000 0.1000000000 0.1000000000 0.1000000000 0.1000000000 0.1000000000 0.1000000000 0.1000000000 0.1000000000 0.1000000000 0.1000000000 0.1000000000 0.1000000000 0.1000000000 0.1000000000 0.1000000000 0.1000000000 0.1000000000 0.1000000000 0.1000000000 0.1000000000 0.1000000000 0.1000000000 0.1000000000 0.1000000000 0.1000000000 0.1000000000 0.1000000000 0.1000000000 0.1000000000 0.1000000000 0.1000000000 0.1000000000 0.1000000000 0.1000000000 0.1000000000 0.1000000000 0.1000000000 0.1000000000 0.1000000000 0.1000000000 0.1000000000 0.1000000000 0.1000000000 0.1000000000 0.1000000000 0.1000000000 0.1000000000 0.1000000000 0.1000000000 0.1000000000 0.1000000000 0.1000000000 0.1000000000 0.1000000000 0.1000000000 0.1000000000 0.1000000000 0.1000000000 0.1000000000 0.1000000000 0.1000000000 0.1000000000 0.1000000000 0.1000000000 0.1000000000 0.1000000000 0.1000000000 0.1000000000 0.1000000000 0.1000000000 0.1000000000 0.1000000000 0.1000000000 0.1000000000 0.1000000000 0.1000000000 0.1000000000 0.1000000000 0.1000000000 0.1000000000 0.1000000000 0.1000000000 0.1000000000 0.1000000000 0.1000000000 0.1000000000 0.1000000000 0.1000000000 0.1000000000 0.1000000000 0.1000000000 0.1000000000 0.1000000000 0.1000000000 0.1000000000 0.1000000000 0.1000000000 0.1000000000 0.1000000000 0.1000000000 0.1000000000 0.1000000000 0.1000000000 0.1000000000 0.1000000000 0.1000000000 0.1000000000 0.1000000000 0.1000000000 0.1000000000 0.1000000000 0.1000000000 0.1000000000 0.1000000000 0.1000000000 0.1000000000 0.1000000000 0.1000000000 0.1000000000 0.1000000000 0.1000000000 0.1000000000 0.1000000000 0.1000000000 0.1000000000 0.1000000000 0.1000000000 0.1000000000 0.1000000000 0.1000000000 0.1000000000 0.1000000000 0.1000000000 0.1000000000 0.1000000000 0.1000000000 0.1000000000 0.1000000000 0.1000000000 0.1000000000 0.1000000000 0.1000000000 0.1000000000 0.1000000000 0.1000000000 0.1000000000 0.1000000000 0.1000000000 0.1000000000 0.1000000000 0.1000000000 0.1000000000 0.1000000000 0.1000000000 0.1000000000 0.1000000000 0.1000000000 0.1000000000 0.1000000000 0.1000000000 0.1000000000 0.1000000000 0.1000000000 0.1000000000 0.1000000000 0.1000000000 0.1000000000 0.1000000000 0.1000000000 0.1000000000 0.1000000000 0.1000000000 0.1000000000 0.1000000000 0.1000000000 0.1000000000 0.1000000000 0.1000000000 0.1000000000 0.1000000000 0.1000000000 0.1000000000 0.1000000000 0.1000000000 0.1000000000 0.1000000000 0.1000000000 0.1000000000 0.1000000000 0.1000000000 0.1000000000 0.1000000000 0.1000000000 0.1000000000 0.1000000000 0.1000000000 0.1000000000 0.1000000000 0.1000000000 0.1000000000 0.1000000000 0.1000000000 0.1000000000 0.1000000000 0.1000000000 0.1000000000 0.1000000000 0.1000000000 0.1000000000 0.1000000000 0.1000000000 0.1000000000 0.1000000000 0.1000000000 0.1000000000 0.1000000000 0.1000000000 0.1000000000 0.1000000000 0.1000000000 0.1000000000 0.1000000000 0.1000000000 0.1000000000 0.1000000000 0.1000000000 0.1000000000 0.1000000000 0.1000000000 0.1000000000 0.1000000000 0.1000000000 0.1000000000 0.1000000000 0.1000000000 0.1000000000 0.1000000000 0.1000000000 0.1000000000 0.1000000000 0.1000000000 0.1000000000 0.1000000000 0.1000000000 0.1000000000 0.1000000000 0.1000000000 0.1000000000 0.1000000000 0.1000000000 0.1000000000 0.1000000000 0.1000000000 0.1000000000 0.1000000000 0.1000000000 0.1000000000 0.1000000000 0.1000000000 0.1000000000 0.1000000000 0.1000000000 0.1000000000 0.1000000000 0.1000000000 0.1000000000 0.1000000000 0.1000000000 0.1000000000 0.1000000000 0.1000000000 0.1000000000 0.1000000000 0.1000000000 0.1000000000 0.1000000000 0.1000000000 0.1000000000 0.1000000000 0.1000000000 0.1000000000 0.1000000000 0.1000000000 0.1000000000 0.1000000000 0.1000000000 0.1000000000 0.1000000000 0.1000000000 0.1000000000 0.1000000000 0.1000000000 0.1000000000 0.1000000000 0.1000000000 0.1000000000 0.1000000000 0.1000000000 0.1000000000 0.1000000000 0.1000000000 0.1000000000 0.1000000000 0.1000000000 0.1000000000 0.1000000000 0.1000000000 0.1000000000 0.1000000000 0.1000000000 0.1000000000 0.1000000000 0.1000000000 0.1000000000 0.1000000000 0.1000000000 0.1000000000 0.1000000000 0.1000000000 0.1000000000 0.1000000000 0.1000000000 0.1000000000 0.1000000000 0.1000000000 0.1000000000 0.1000000000 0.1000000000 0.1000000000 0.1000000000 0.1000000000 0.1000000000 0.1000000000 0.1000000000 0.1000000000 0.1000000000 0.1000000000 0.1000000000 0.1000000000 0.1000000000 0.1000000000 0.1000000000 0.1000000000 0.1000000000 0.1000000000 0.1000000000 0.1000000000 0.1000000000 0.1000000000 0.1000000000 0.1000000000 0.1000000000 0.1000000000 0.1000000000 0.1000000000 0.1000000000 0.1000000000 0.1000000000 0.1000000000 0.1000000000 0.1000000000 0.1000000000 0.1000000000 0.1000000000 0.1000000000 0.1000000000 0.1000000000 0.1000000000 0.1000000000 0.1000000000 0.1000000000 0.1000000000 0.1000000000 0.1000000000 0.1000000000 0.1000000000 0.1000000000 0.1000000000 0.1000000000 0.1000000000 0.1000000000 0.1000000000 0.1000000000 0.1000000000 0.1000000000 0.1000000000 0.1000000000 0.1000000000 0.1000000000 0.1000000000 0.1000000000 0.1000000000 0.1000000000 0.1000000000 0.1000000000 0.1000000000 0.1000000000 0.1000000000 0.1000000000 0.1000000000 0.1000000000 0.1000000000 0.1000000000 0.1000000000 0.1000000000 0.1000000000 0.1000000000 0.1000000000 0.1000000000 0.1000000000 0.1000000000 0.1000000000 0.1000000000 0.1000000000 0.1000000000 0.1000000000 0.1000000000 0.1000000000 0.1000000000 0.1000000000 0.1000000000 0.1000000000 0.1000000000 0.1000000000 0.1000000000 0.1000000000 0.1000000000 0.1000000000 0.1000000000 0.1000000000 0.1000000000 0.1000000000 0.1000000000 0.1000000000 0.1000000000 0.1000000000 0.1000000000 0.1000000000 0.1000000000 0.1000000000 0.1000000000 0.1000000000 0.1000000000 0.1000000000 0.1000000000 0.1000000000 0.1000000000 0.1000000000 0.1000000000 0.1000000000 0.1000000000 0.1000000000 0.1000000000 0.1000000000 0.1000000000 0.1000000000 0.1000000000 0.1000000000 0.1000000000 0.1000000000 0.1000000000 0.1000000000 0.1000000000 0.1000000000 0.1000000000 0.1000000000 0.1000000000 0.1000000000 0.1000000000 0.1000000000 0.1000000000 0.1000000000 0.1000000000 0.1000000000 0.1000000000 0.1000000000 0.1000000000 0.1000000000 0.1000000000 0.1000000000 0.1000000000 0.1000000000 0.1000000000 0.1000000000 0.1000000000 0.1000000000 0.1000000000 0.1000000000 0.1000000000 0.1000000000 0.1000000000 0.1000000000 0.1000000000 0.1000000000 0.1000000000 0.1000000000 0.1000000000 0.1000000000 0.1000000000 0.1000000000 0.1000000000 0.1000000000 0.1000000000 0.1000000000 0.1000000000 0.1000000000 0.1000000000 0.1000000000 0.1000000000 0.1000000000 0.1000000000 0.1000000000 0.1000000000 0.1000000000 0.1000000000 0.1000000000 0.1000000000 0.1000000000 0.1000000000 0.1000000000 0.1000000000 0.1000000000 0.1000000000 0.1000000000 0.1000000000 0.1000000000 0.1000000000 0.1000000000 0.1000000000 0.1000000000 0.1000000000 0.1000000000 0.1000000000 0.1000000000 0.1000000000 0.1000000000 0.1000000000 0.1000000000 0.1000000000 0.1000000000 0.1000000000 0.1000000000 0.1000000000 0.1000000000 0.1000000000 0.1000000000 0.1000000000 0.1000000000 0.1000000000 0.1000000000 0.1000000000 0.1000000000 0.1000000000 0.1000000000 0.1000000000 0.1000000000 0.1000000000 0.1000000000 0.1000000000 0.1000000000 0.1000000000 0.1000000000 0.1000000000 0.1000000000 0.1000000000 0.1000000000 0.1000000000 0.1000000000 0.1000000000 0.1000000000 0.1000000000 0.1000000000 0.1000000000 0.1000000000 0.1000000000 0.1000000000 0.1000000000 0.1000000000 0.1000000000 0.1000000000 0.1000000000 0.1000000000 0.1000000000 0.1000000000 0.1000000000 0.1000000000 0.1000000000 0.1000000000 0.1000000000 0.1000000000 0.1000000000 0.1000000000 0.1000000000 0.1000000000 0.1000000000 0.1000000000 0.1000000000 0.1000000000 0.1000000000 0.1000000000 0.1000000000 0.1000000000 0.1000000000 0.1000000000 0.1000000000 0.1000000000 0.1000000000 0.1000000000 0.1000000000 0.1000000000 0.1000000000 0.1000000000 0.1000000000 0.1000000000 0.1000000000 0.1000000000 0.1000000000 0.1000000000 0.1000000000 0.1000000000 0.1000000000 0.1000000000 0.1000000000 0.1000000000 0.1000000000 0.1000000000 0.1000000000 0.1000000000 0.1000000000 0.1000000000 0.1000000000 0.1000000000 0.1000000000 0.1000000000 0.1000000000 0.1000000000 0.1000000000 0.1000000000 0.1000000000 0.1000000000 0.1000000000 0.1000000000 0.1000000000 0.1000000000 0.1000000000 0.1000000000 0.1000000000 0.1000000000 0.1000000000 0.1000000000 0.1000000000 0.1000000000 0.1000000000 0.1000000000 0.1000000000 0.1000000000 0.1000000000 0.1000000000 0.1000000000 0.1000000000 0.1000000000 0.1000000000 0.1000000000 0.1000000000 0.1000000000 0.1000000000 0.1000000000 0.1000000000 0.1000000000 0.1000000000 0.1000000000 0.1000000000 0.1000000000 0.1000000000 0.1000000000 0.1000000000 0.1000000000 0.1000000000 0.1000000000 0.1000000000 0.1000000000 0.1000000000 0.1000000000 0.1000000000 0.1000000000 0.1000000000 0.1000000000 0.1000000000 0.1000000000 0.1000000000 0.1000000000 0.1000000000 0.1000000000 0.1000000000 0.1000000000 0.1000000000 0.1000000000 0.1000000000 0.1000000000 0.1000000000 0.1000000000 0.1000000000 0.1000000000 0.1000000000 0.1000000000 0.1000000000 0.1000000000 0.1000000000 0.1000000000 0.1000000000 0.1000000000 0.1000000000 0.1000000000 0.1000000000 0.1000000000 0.1000000000 0.1000000000 0.1000000000 0.1000000000 0.1000000000 0.1000000000 0.1000000000 0.1000000000 0.1000000000 0.1000000000 0.1000000000 0.1000000000 0.1000000000 0.1000000000 0.1000000000 0.1000000000 0.1000000000 0.1000000000 0.1000000000 0.1000000000 0.1000000000 0.1000000000 0.1000000000 0.1000000000 0.1000000000 0.1000000000 0.1000000000 0.1000000000 0.1000000000 0.1000000000 0.1000000000 0.1000000000 0.1000000000 0.1000000000 0.1000000000 0.1000000000 0.1000000000 0.1000000000 0.1000000000 0.1000000000 0.1000000000 0.1000000000 0.1000000000 0.1000000000 0.1000000000 0.1000000000 0.1000000000 0.1000000000 0.1000000000 0.1000000000 0.1000000000 0.1000000000 0.1000000000 0.1000000000 0.1000000000 0.1000000000 0.1000000000 0.1000000000 0.1000000000 0.1000000000 0.1000000000 0.1000000000 0.1000000000 0.1000000000 0.1000000000 0.1000000000 0.1000000000 0.1000000000 0.1000000000 0.1000000000 0.1000000000 0.1000000000 0.1000000000 0.1000000000 0.1000000000 0.1000000000 0.1000000000 0.1000000000 0.1000000000 0.1000000000 0.1000000000 0.1000000000 0.1000000000 0.1000000000 0.1000000000 0.1000000000 0.1000000000 0.1000000000 0.1000000000 0.1000000000 0.1000000000 0.1000000000 0.1000000000 0.1000000000 0.1000000000 0.1000000000 0.1000000000 0.1000000000 0.1000000000 0.1000000000 0.1000000000 0.1000000000 0.1000000000 0.1000000000 0.1000000000 0.1000000000 0.1000000000 0.1000000000 0.1000000000 0.1000000000 0.1000000000 0.1000000000 0.1000000000 0.1000000000 0.1000000000 0.1000000000 0.1000000000 0.1000000000 0.1000000000 0.1000000000 0.1000000000 0.1000000000 0.1000000000 0.1000000000 0.1000000000 0.1000000000 0.1000000000 0.1000000000 0.1000000000 0.1000000000 0.1000000000 0.1000000000 0.1000000000 0.1000000000 0.1000000000 0.1000000000 0.1000000000 0.1000000000 0.1000000000 0.1000000000 0.1000000000 0.1000000000 0.1000000000 0.1000000000 0.1000000000 0.1000000000 0.1000000000 0.1000000000 0.1000000000 0.1000000000 0.1000000000 0.1000000000 0.1000000000 0.1000000000 0.1000000000 0.1000000000 0.1000000000 0.1000000000 0.1000000000 0.1000000000 0.1000000000 0.1000000000 0.1000000000 0.1000000000 0.1000000000 0.1000000000 0.1000000000 0.1000000000 0.1000000000 0.1000000000 0.1000000000 0.1000000000 0.1000000000 0.1000000000 0.1000000000 0.1000000000 0.1000000000 0.1000000000 0.1000000000 0.1000000000 0.1000000000 0.1000000000 0.1000000000 0.1000000000 0.1000000000 0.1000000000 0.1000000000 0.1000000000 0.1000000000 0.1000000000 0.1000000000 0.1000000000 0.1000000000 0.1000000000 0.1000000000 0.1000000000 0.1000000000 0.1000000000 0.1000000000 0.1000000000 0.1000000000 0.1000000000 0.1000000000 0.1000000000 0.1000000000 0.1000000000 0.1000000000 0.1000000000 0.1000000000 0.1000000000 0.1000000000 0.1000000000 0.1000000000 0.1000000000 0.1000000000 0.1000000000 0.1000000000 0.1000000000 0.1000000000 0.1000000000 0.1000000000 0.1000000000 0.1000000000 0.1000000000 0.1000000000 0.1000000000 0.1000000000 0.1000000000 0.1000000000 0.1000000000 0.1000000000 0.1000000000 0.1000000000 0.1000000000 0.1000000000 0.1000000000 0.1000000000 0.1000000000 0.1000000000 0.1000000000 0.1000000000 0.1000000000 0.1000000000 0.1000000000 0.1000000000 0.1000000000 0.1000000000 0.1000000000 0.1000000000 0.1000000000 0.1000000000 0.1000000000 0.1000000000 0.1000000000 0.1000000000 0.1000000000 0.1000000000 0.1000000000 0.1000000000 0.1000000000 0.1000000000 0.1000000000 0.1000000000 0.1000000000 0.1000000000 0.1000000000 0.1000000000 0.1000000000 0.1000000000 0.1000000000 0.1000000000 0.1000000000 0.1000000000 0.1000000000 0.1000000000 0.1000000000 0.1000000000 0.1000000000 0.1000000000 0.1000000000 0.1000000000 0.1000000000 0.1000000000 0.1000000000 0.1000000000 0.1000000000 0.1000000000 0.1000000000 0.1000000000 0.1000000000 0.1000000000 0.1000000000 0.1000000000 0.1000000000 0.1000000000 0.1000000000 0.10000000