<?xml version="1.0"?>
<VTKFile type="UnstructuredGrid" version="0.1" byte_order="LittleEndian">
  <UnstructuredGrid>
    <FieldData>
      <DataArray type="Float32" Name="TIME"  NumberOfTuples="1" format="ascii"> 3.3500000000 </DataArray>
      <DataArray type="Int32"   Name="STEP"  NumberOfTuples="1" format="ascii"> 837500 </DataArray>
    </FieldData>
    <Piece NumberOfPoints="11600" NumberOfCells="11600">
      <Points>
        <DataArray type="Float32" NumberOfComponents="3" format="ascii">
 -0.6180599226 -1.0473761123 -0.0000041118 -0.4181319189 -1.0420102140 -0.0000038905 -0.2182039125 -1.0366443151 -0.0000036736 -0.0182759110 -1.0312784175 -0.0000034604 0.1816520992 -1.0259125225 -0.0000032676 0.3815801089 -1.0205466256 -0.0000030754 0.5815081193 -1.0151807277 -0.0000028759 0.7814361300 -1.0098148308 -0.0000026647 0.9813641656 -1.0044489289 -0.0000024177 1.1812921767 -0.9990830235 -0.0000022302 1.3812201887 -0.9937171196 -0.0000020799 1.5811482014 -0.9883512157 -0.0000019773 1.7810762141 -0.9829853143 -0.0000019194 1.9810042645 -0.9776194058 -0.0000019335 2.1809322795 -0.9722534933 -0.0000019724 2.3808602958 -0.9668875824 -0.0000020237 2.5807883110 -0.9615216709 -0.0000020768 2.7807163241 -0.9561557600 -0.0000021205 2.9806443527 -0.9507898480 -0.0000021284 3.1805723639 -0.9454239371 -0.0000020927 3.3805003759 -0.9400580294 -0.0000020351 3.5804283898 -0.9346921216 -0.0000019683 3.7803564034 -0.9293262137 -0.0000019059 3.9802844501 -0.9239602977 -0.0000018417 4.1802124637 -0.9185943778 -0.0000017854 4.3801404782 -0.9132284584 -0.0000017136 4.5800684915 -0.9078625397 -0.0000016249 4.7799965042 -0.9024966253 -0.0000015333 4.9799245535 -0.8971307039 -0.0000014614 5.1798525674 -0.8917647800 -0.0000014659 5.3797805828 -0.8863988604 -0.0000015143 5.5797085992 -0.8810329433 -0.0000015949 5.7796366147 -0.8756670280 -0.0000016885 5.9795646667 -0.8703011045 -0.0000017905 6.1794926791 -0.8649351747 -0.0000018747 6.3794206907 -0.8595692476 -0.0000019536 6.5793487022 -0.8542033233 -0.0000020266 6.7792767152 -0.8488374032 -0.0000020937 6.9792047711 -0.8434714758 -0.0000021576 7.1791327865 -0.8381055387 -0.0000022151 7.3790608021 -0.8327396004 -0.0000022784 7.5789888161 -0.8273736605 -0.0000023492 7.7789168272 -0.8220077213 -0.0000024225 7.9788448470 -0.8166417882 -0.0000025159 8.1787728581 -0.8112758537 -0.0000025365 8.3787008703 -0.8059099195 -0.0000025166 8.5786288822 -0.8005439852 -0.0000024499 8.7785568939 -0.7951780520 -0.0000023493 8.9784849346 -0.7898121127 -0.0000022331 9.1784129498 -0.7844461742 -0.0000021396 9.3783409675 -0.7790802359 -0.0000020663 9.5782689879 -0.7737142959 -0.0000020116 9.7781970081 -0.7683483547 -0.0000019668 9.9781250926 -0.7629823952 -0.0000019312 10.1780531133 -0.7576164291 -0.0000018840 10.3779811359 -0.7522504637 -0.0000018386 10.5779091570 -0.7468844989 -0.0000018032 10.7778371761 -0.7415185391 -0.0000017846 10.9777652540 -0.7361525711 -0.0000017972 11.1776932721 -0.7307865961 -0.0000018351 11.3776212918 -0.7254206253 -0.0000018893 11.5775493125 -0.7200546552 -0.0000019582 11.7774773308 -0.7146886864 -0.0000020340 11.9774053879 -0.7093227100 -0.0000021135 12.1773334007 -0.7039567319 -0.0000021560 12.3772614416 -0.6985907566 -0.0000021708 12.5771894535 -0.6932247757 -0.0000021452 12.7771174648 -0.6878587981 -0.0000021024 12.9770454947 -0.6824928166 -0.0000020460 13.1769735048 -0.6771268285 -0.0000019762 13.3769015335 -0.6717608247 -0.0000018942 13.6362394095 -0.6509544731 0.0000000000 13.8362371308 -0.6519090493 0.0000000000 14.0362348520 -0.6528636253 0.0000000000 14.2362325759 -0.6538182008 0.0000000000 14.4362302973 -0.6547727773 0.0000000000 14.6362280198 -0.6557273529 0.0000000000 14.8362257422 -0.6566819292 0.0000000000 15.0362234637 -0.6576365051 0.0000000000 15.2362211871 -0.6585910811 0.0000000000 15.4362189087 -0.6595456572 0.0000000000 15.6362166315 -0.6605002333 0.0000000000 15.8362143538 -0.6614548089 0.0000000000 16.1418053010 -0.4907682813 0.0000017916 16.3416817381 -0.4837389171 0.0000040271 16.5415582102 -0.4767095509 0.0000031527 16.7414346468 -0.4696801800 0.0000037377 16.9413110799 -0.4626508159 0.0000044576 17.1411875101 -0.4556214548 0.0000021336 17.3410639413 -0.4485921017 0.0000036805 17.5409403740 -0.4415627555 0.0000019605 17.7408168066 -0.4345334103 0.0000023509 17.9406932405 -0.4275040704 0.0000029187 18.1405696757 -0.4204747288 0.0000019704 18.3404461152 -0.4134453866 0.0000023803 18.5403225828 -0.4064160392 0.0000030631 18.7401990253 -0.3993866805 0.0000021196 18.9400754689 -0.3923573227 0.0000039194 19.1399519156 -0.3853279601 0.0000039345 19.3398283563 -0.3782985902 0.0000008800 -0.5227429244 -0.8715504335 -0.0000037992 -0.3228149203 -0.8661845354 -0.0000035817 -0.1228869139 -0.8608186362 -0.0000033721 0.0770410946 -0.8554527413 -0.0000031785 0.2769691027 -0.8500868454 -0.0000029947 0.4768971124 -0.8447209480 -0.0000028105 0.6768251242 -0.8393550502 -0.0000026179 0.8767531418 -0.8339891526 -0.0000024148 1.0766811599 -0.8286232477 -0.0000022225 1.2766091736 -0.8232573437 -0.0000020607 1.4765371875 -0.8178914400 -0.0000019373 1.6764652041 -0.8125255363 -0.0000018567 1.8763932287 -0.8071596338 -0.0000018224 2.0763212537 -0.8017937221 -0.0000018388 2.2762492720 -0.7964278108 -0.0000018784 2.4761772883 -0.7910618992 -0.0000019274 2.6761053038 -0.7856959870 -0.0000019741 2.8760333226 -0.7803300760 -0.0000020028 3.0759613412 -0.7749641639 -0.0000019937 3.2758893557 -0.7695982545 -0.0000019575 3.4758173703 -0.7642323465 -0.0000019078 3.6757453867 -0.7588664378 -0.0000018569 3.8756734088 -0.7535005279 -0.0000018119 4.0756014317 -0.7481346092 -0.0000017696 4.2755294487 -0.7427686902 -0.0000017184 4.4754574649 -0.7374027706 -0.0000016496 4.6753854828 -0.7320368533 -0.0000015689 4.8753135068 -0.7266709377 -0.0000014964 5.0752415319 -0.7213050140 -0.0000014676 5.2751695514 -0.7159390931 -0.0000014852 5.4750975704 -0.7105731751 -0.0000015392 5.6750255901 -0.7052072580 -0.0000016158 5.8749536147 -0.6998413404 -0.0000017015 6.0748816379 -0.6944754113 -0.0000017863 6.2748096542 -0.6891094829 -0.0000018665 6.4747376696 -0.6837435574 -0.0000019415 6.6746656866 -0.6783776352 -0.0000020097 6.8745937111 -0.6730117139 -0.0000020702 7.0745217360 -0.6676457793 -0.0000021234 7.2744497532 -0.6622798426 -0.0000021760 7.4743777683 -0.6569139040 -0.0000022326 7.6743057822 -0.6515479640 -0.0000022921 7.8742337988 -0.6461820272 -0.0000023476 8.0741618152 -0.6408160940 -0.0000023738 8.2740898285 -0.6354501600 -0.0000023594 8.4740178422 -0.6300842254 -0.0000023024 8.6739458572 -0.6247182911 -0.0000022077 8.8738738791 -0.6193523562 -0.0000020925 9.0738019024 -0.6139864169 -0.0000019817 9.2737299215 -0.6086204788 -0.0000018897 9.4736579415 -0.6032545396 -0.0000018176 9.6735859653 -0.5978885983 -0.0000017612 9.8735140006 -0.5925226526 -0.0000017139 10.0734420367 -0.5871566872 -0.0000016699 10.2733700629 -0.5817907220 -0.0000016269 10.4732980876 -0.5764247567 -0.0000015912 10.6732261138 -0.5710587938 -0.0000015697 10.8731541504 -0.5656928331 -0.0000015682 11.0730821863 -0.5603268591 -0.0000015921 11.2730102116 -0.5549608875 -0.0000016322 11.4729382353 -0.5495949174 -0.0000016862 11.6728662586 -0.5442289469 -0.0000017511 11.8727942897 -0.5388629759 -0.0000018175 12.0727223199 -0.5334969974 -0.0000018672 12.2726503464 -0.5281310212 -0.0000018910 12.4725783702 -0.5227650420 -0.0000018781 12.6725063861 -0.5173990627 -0.0000018401 12.8724344033 -0.5120330833 -0.0000017865 13.0723624166 -0.5066670977 -0.0000017202 13.2722904248 -0.5013011070 -0.0000016471 13.5370672333 -0.4772740802 0.0000000000 13.7370649565 -0.4782286545 0.0000000000 13.9370626788 -0.4791832304 0.0000000000 14.1370604011 -0.4801378068 0.0000000000 14.3370581233 -0.4810923826 0.0000000000 14.5370558456 -0.4820469588 0.0000000000 14.7370535677 -0.4830015349 0.0000000000 14.9370512899 -0.4839561107 0.0000000000 15.1370490125 -0.4849106872 0.0000000000 15.3370467347 -0.4858652627 0.0000000000 15.5370444572 -0.4868198385 0.0000000000 15.7370421768 -0.4877744167 0.0000000000 16.0357794738 -0.3211848932 0.0000024315 16.2356559093 -0.3141555334 0.0000023815 16.4355323585 -0.3071261717 0.0000029391 16.6354088085 -0.3000968009 0.0000016881 16.8352852504 -0.2930674336 0.0000019573 17.0351616865 -0.2860380701 0.0000032481 17.2350381204 -0.2790087134 0.0000027649 17.4349145549 -0.2719793641 0.0000031045 17.6347909903 -0.2649500166 0.0000029111 17.8346674279 -0.2579206748 0.0000020500 18.0345438635 -0.2508913358 0.0000024369 18.2344203031 -0.2438619956 0.0000009759 18.4342967485 -0.2368326534 0.0000008874 18.6341731952 -0.2298032993 0.0000019615 18.8340496397 -0.2227739421 0.0000022083 19.0339260845 -0.2157445824 0.0000019218 19.2338025262 -0.2087152152 0.0000034812 19.4336789639 -0.2016858427 0.0000029641 -0.6273539308 -0.7010906519 -0.0000037079 -0.4274259266 -0.6957247539 -0.0000034905 -0.2274979198 -0.6903588562 -0.0000032785 -0.0275699109 -0.6849929594 -0.0000030818 0.1723580981 -0.6796270632 -0.0000029016 0.3722861068 -0.6742611663 -0.0000027286 0.5722141165 -0.6688952691 -0.0000025549 0.7721421275 -0.6635293713 -0.0000023774 0.9720701463 -0.6581634694 -0.0000022002 1.1719981592 -0.6527975666 -0.0000020409 1.3719261728 -0.6474316633 -0.0000019066 1.5718541873 -0.6420657598 -0.0000018058 1.7717822030 -0.6366998565 -0.0000017412 1.9717102331 -0.6313339484 -0.0000017234 2.1716382490 -0.6259680381 -0.0000017434 2.3715662647 -0.6206021266 -0.0000017818 2.5714942795 -0.6152362144 -0.0000018267 2.7714222935 -0.6098703026 -0.0000018650 2.9713503183 -0.6045043907 -0.0000018790 3.1712783324 -0.5991384796 -0.0000018633 3.3712063474 -0.5937725700 -0.0000018316 3.5711343623 -0.5884066608 -0.0000017942 3.7710623768 -0.5830407506 -0.0000017602 3.9709904047 -0.5776748363 -0.0000017329 4.1709184199 -0.5723089185 -0.0000017003 4.3708464363 -0.5669430002 -0.0000016539 4.5707744534 -0.5615770821 -0.0000015920 4.7707024695 -0.5562111651 -0.0000015263 4.9706305013 -0.5508452458 -0.0000014794 5.1705585190 -0.5454793250 -0.0000014723 5.3704865382 -0.5401134
[...]
      <PointData Scalars="radius">
        <DataArray type="Float32" Name="radius" format="ascii">
 0.1000000000 0.1000000000 0.1000000000 0.1000000000 0.1000000000 0.1000000000 0.1000000000 0.1000000000 0.1000000000 0.1000000000 0.1000000000 0.1000000000 0.1000000000 0.1000000000 0.1000000000 0.1000000000 0.1000000000 0.1000000000 0.1000000000 0.1000000000 0.1000000000 0.1000000000 0.1000000000 0.1000000000 0.1000000000 0.1000000000 0.1000000000 0.1000000000 0.1000000000 0.1000000000 0.1000000000 0.1000000000 0.1000000000 0.1000000000 0.1000000000 0.1000000000 0.1000000000 0.1000000000 0.1000000000 0.1000000000 0.1000000000 0.1000000000 0.1000000000 0.1000000000 0.1000000000 0.1000000000 0.1000000000 0.1000000000 0.1000000000 0.1000000000 0.1000000000 0.1000000000 0.1000000000 0.1000000000 0.1000000000 0.1000000000 0.1000000000 0.1000000000 0.1000000000 0.1000000000 0.1000000000 0.1000000000 0.1000000000 0.1000000000 0.1000000000 0.1000000000 0.1000000000 0.1000000000 0.1000000000 0.1000000000 0.1000000000 0.1000000000 0.1000000000 0.1000000000 0.1000000000 0.1000000000 0.1000000000 0.1000000000 0.1000000000 0.1000000000 0.1000000000 0.1000000000 0.1000000000 0.1000000000 0.1000000000 0.1000000000 0.1000000000 0.1000000000 0.1000000000 0.1000000000 0.1000000000 0.1000000000 0.1000000000 0.1000000000 0.1000000000 0.1000000000 0.1000000000 0.1000000000 0.1000000000 0.1000000000 0.1000000000 0.1000000000 0.1000000000 0.1000000000 0.1000000000 0.1000000000 0.1000000000 0.1000000000 0.1000000000 0.1000000000 0.1000000000 0.1000000000 0.1000000000 0.1000000000 0.1000000000 0.1000000000 0.1000000000 0.1000000000 0.1000000000 0.1000000000 0.1000000000 0.1000000000 0.1000000000 0.1000000000 0.1000000000 0.1000000000 0.1000000000 0.1000000000 0.1000000000 0.1000000000 0.1000000000 0.1000000000 0.1000000000 0.1000000000 0.1000000000 0.1000000000 0.1000000000 0.1000000000 0.1000000000 0.1000000000 0.1000000000 0.1000000000 0.1000000000 0.1000000000 0.1000000000 0.1000000000 0.1000000000 0.1000000000 0.1000000000 0.1000000000 0.1000000000 0.1000000000 0.1000000000 0.1000000000 0.1000000000 0.1000000000 0.1000000000 0.1000000000 0.1000000000 0.1000000000 0.1000000000 0.1000000000 0.1000000000 0.1000000000 0.1000000000 0.1000000000 0.1000000000 0.1000000000 0.1000000000 0.1000000000 0.1000000000 0.1000000000 0.1000000000 0.1000000000 0.1000000000 0.1000000000 0.1000000000 0.1000000000 0.1000000000 0.1000000000 0.1000000000 0.1000000000 0.1000000000 0.1000000000 0.1000000000 0.1000000000 0.1000000000 0.1000000000 0.1000000000 0.1000000000 0.1000000000 0.1000000000 0.1000000000 0.1000000000 0.1000000000 0.1000000000 0.1000000000 0.1000000000 0.1000000000 0.1000000000 0.1000000000 0.1000000000 0.1000000000 0.1000000000 0.1000000000 0.1000000000 0.1000000000 0.1000000000 0.1000000000 0.1000000000 0.1000000000 0.1000000000 0.1000000000 0.1000000000 0.1000000000 0.1000000000 0.1000000000 0.1000000000 0.1000000000 0.1000000000 0.1000000000 0.1000000000 0.1000000000 0.1000000000 0.1000000000 0.1000000000 0.1000000000 0.1000000000 0.1000000000 0.1000000000 0.1000000000 0.1000000000 0.1000000000 0.1000000000 0.1000000000 0.1000000000 0.1000000000 0.1000000000 0.1000000000 0.1000000000 0.1000000000 0.1000000000 0.1000000000 0.1000000000 0.1000000000 0.1000000000 0.1000000000 0.1000000000 0.1000000000 0.1000000000 0.1000000000 0.1000000000 0.1000000000 0.1000000000 0.1000000000 0.1000000000 0.1000000000 0.1000000000 0.1000000000 0.1000000000 0.1000000000 0.1000000000 0.1000000000 0.1000000000 0.1000000000 0.1000000000 0.1000000000 0.1000000000 0.1000000000 0.1000000000 0.1000000000 0.1000000000 0.1000000000 0.1000000000 0.1000000000 0.1000000000 0.1000000000 0.1000000000 0.1000000000 0.1000000000 0.1000000000 0.1000000000 0.1000000000 0.1000000000 0.1000000000 0.1000000000 0.1000000000 0.1000000000 0.1000000000 0.1000000000 0.1000000000 0.1000000000 0.1000000000 0.1000000000 0.1000000000 0.1000000000 0.1000000000 0.1000000000 0.1000000000 0.1000000000 0.1000000000 0.1000000000 0.1000000000 0.1000000000 0.1000000000 0.1000000000 0.1000000000 0.1000000000 0.1000000000 0.1000000000 0.1000000000 0.1000000000 0.1000000000 0.1000000000 0.1000000000 0.1000000000 0.1000000000 0.1000000000 0.1000000000 0.1000000000 0.1000000000 0.1000000000 0.1000000000 0.1000000000 0.1000000000 0.1000000000 0.1000000000 0.1000000000 0.1000000000 0.1000000000 0.1000000000 0.1000000000 0.1000000000 0.1000000000 0.1000000000 0.1000000000 0.1000000000 0.1000000000 0.1000000000 0.1000000000 0.1000000000 0.1000000000 0.1000000000 0.1000000000 0.1000000000 0.1000000000 0.1000000000 0.1000000000 0.1000000000 0.1000000000 0.1000000000 0.1000000000 0.1000000000 0.1000000000 0.1000000000 0.1000000000 0.1000000000 0.1000000000 0.1000000000 0.1000000000 0.1000000000 0.1000000000 0.1000000000 0.1000000000 0.1000000000 0.1000000000 0.1000000000 0.1000000000 0.1000000000 0.1000000000 0.1000000000 0.1000000000 0.1000000000 0.1000000000 0.1000000000 0.1000000000 0.1000000000 0.1000000000 0.1000000000 0.1000000000 0.1000000000 0.1000000000 0.1000000000 0.1000000000 0.1000000000 0.1000000000 0.1000000000 0.1000000000 0.1000000000 0.1000000000 0.1000000000 0.1000000000 0.1000000000 0.1000000000 0.1000000000 0.1000000000 0.1000000000 0.1000000000 0.1000000000 0.1000000000 0.1000000000 0.1000000000 0.1000000000 0.1000000000 0.1000000000 0.1000000000 0.1000000000 0.1000000000 0.1000000000 0.1000000000 0.1000000000 0.1000000000 0.1000000000 0.1000000000 0.1000000000 0.1000000000 0.1000000000 0.1000000000 0.1000000000 0.1000000000 0.1000000000 0.1000000000 0.1000000000 0.1000000000 0.1000000000 0.1000000000 0.1000000000 0.1000000000 0.1000000000 0.1000000000 0.1000000000 0.1000000000 0.1000000000 0.1000000000 0.1000000000 0.1000000000 0.1000000000 0.1000000000 0.1000000000 0.1000000000 0.1000000000 0.1000000000 0.1000000000 0.1000000000 0.1000000000 0.1000000000 0.1000000000 0.1000000000 0.1000000000 0.1000000000 0.1000000000 0.1000000000 0.1000000000 0.1000000000 0.1000000000 0.1000000000 0.1000000000 0.1000000000 0.1000000000 0.1000000000 0.1000000000 0.1000000000 0.1000000000 0.1000000000 0.1000000000 0.1000000000 0.1000000000 0.1000000000 0.1000000000 0.1000000000 0.1000000000 0.1000000000 0.1000000000 0.1000000000 0.1000000000 0.1000000000 0.1000000000 0.1000000000 0.1000000000 0.1000000000 0.1000000000 0.1000000000 0.1000000000 0.1000000000 0.1000000000 0.1000000000 0.1000000000 0.1000000000 0.1000000000 0.1000000000 0.1000000000 0.1000000000 0.1000000000 0.1000000000 0.1000000000 0.1000000000 0.1000000000 0.1000000000 0.1000000000 0.1000000000 0.1000000000 0.1000000000 0.1000000000 0.1000000000 0.1000000000 0.1000000000 0.1000000000 0.1000000000 0.1000000000 0.1000000000 0.1000000000 0.1000000000 0.1000000000 0.1000000000 0.1000000000 0.1000000000 0.1000000000 0.1000000000 0.1000000000 0.1000000000 0.1000000000 0.1000000000 0.1000000000 0.1000000000 0.1000000000 0.1000000000 0.1000000000 0.1000000000 0.1000000000 0.1000000000 0.1000000000 0.1000000000 0.1000000000 0.1000000000 0.1000000000 0.1000000000 0.1000000000 0.1000000000 0.1000000000 0.1000000000 0.1000000000 0.1000000000 0.1000000000 0.1000000000 0.1000000000 0.1000000000 0.1000000000 0.1000000000 0.1000000000 0.1000000000 0.1000000000 0.1000000000 0.1000000000 0.1000000000 0.1000000000 0.1000000000 0.1000000000 0.1000000000 0.1000000000 0.1000000000 0.1000000000 0.1000000000 0.1000000000 0.1000000000 0.1000000000 0.1000000000 0.1000000000 0.1000000000 0.1000000000 0.1000000000 0.1000000000 0.1000000000 0.1000000000 0.1000000000 0.1000000000 0.1000000000 0.1000000000 0.1000000000 0.1000000000 0.1000000000 0.1000000000 0.1000000000 0.1000000000 0.1000000000 0.1000000000 0.1000000000 0.1000000000 0.1000000000 0.1000000000 0.1000000000 0.1000000000 0.1000000000 0.1000000000 0.1000000000 0.1000000000 0.1000000000 0.1000000000 0.1000000000 0.1000000000 0.1000000000 0.1000000000 0.1000000000 0.1000000000 0.1000000000 0.1000000000 0.1000000000 0.1000000000 0.1000000000 0.1000000000 0.1000000000 0.1000000000 0.1000000000 0.1000000000 0.1000000000 0.1000000000 0.1000000000 0.1000000000 0.1000000000 0.1000000000 0.1000000000 0.1000000000 0.1000000000 0.1000000000 0.1000000000 0.1000000000 0.1000000000 0.1000000000 0.1000000000 0.1000000000 0.1000000000 0.1000000000 0.1000000000 0.1000000000 0.1000000000 0.1000000000 0.1000000000 0.1000000000 0.1000000000 0.1000000000 0.1000000000 0.1000000000 0.1000000000 0.1000000000 0.1000000000 0.1000000000 0.1000000000 0.1000000000 0.1000000000 0.1000000000 0.1000000000 0.1000000000 0.1000000000 0.1000000000 0.1000000000 0.1000000000 0.1000000000 0.1000000000 0.1000000000 0.1000000000 0.1000000000 0.1000000000 0.1000000000 0.1000000000 0.1000000000 0.1000000000 0.1000000000 0.1000000000 0.1000000000 0.1000000000 0.1000000000 0.1000000000 0.1000000000 0.1000000000 0.1000000000 0.1000000000 0.1000000000 0.1000000000 0.1000000000 0.1000000000 0.1000000000 0.1000000000 0.1000000000 0.1000000000 0.1000000000 0.1000000000 0.1000000000 0.1000000000 0.1000000000 0.1000000000 0.1000000000 0.1000000000 0.1000000000 0.1000000000 0.1000000000 0.1000000000 0.1000000000 0.1000000000 0.1000000000 0.1000000000 0.1000000000 0.1000000000 0.1000000000 0.1000000000 0.1000000000 0.1000000000 0.1000000000 0.1000000000 0.1000000000 0.1000000000 0.1000000000 0.1000000000 0.1000000000 0.1000000000 0.1000000000 0.1000000000 0.1000000000 0.1000000000 0.1000000000 0.1000000000 0.1000000000 0.1000000000 0.1000000000 0.1000000000 0.1000000000 0.1000000000 0.1000000000 0.1000000000 0.1000000000 0.1000000000 0.1000000000 0.1000000000 0.1000000000 0.1000000000 0.1000000000 0.1000000000 0.1000000000 0.1000000000 0.1000000000 0.1000000000 0.1000000000 0.1000000000 0.1000000000 0.1000000000 0.1000000000 0.1000000000 0.1000000000 0.1000000000 0.1000000000 0.1000000000 0.1000000000 0.1000000000 0.1000000000 0.1000000000 0.1000000000 0.1000000000 0.1000000000 0.1000000000 0.1000000000 0.1000000000 0.1000000000 0.1000000000 0.1000000000 0.1000000000 0.1000000000 0.1000000000 0.1000000000 0.1000000000 0.1000000000 0.1000000000 0.1000000000 0.1000000000 0.1000000000 0.1000000000 0.1000000000 0.1000000000 0.1000000000 0.1000000000 0.1000000000 0.1000000000 0.1000000000 0.1000000000 0.1000000000 0.1000000000 0.1000000000 0.1000000000 0.1000000000 0.1000000000 0.1000000000 0.1000000000 0.1000000000 0.1000000000 0.1000000000 0.1000000000 0.1000000000 0.1000000000 0.1000000000 0.1000000000 0.1000000000 0.1000000000 0.1000000000 0.1000000000 0.1000000000 0.1000000000 0.1000000000 0.1000000000 0.1000000000 0.1000000000 0.1000000000 0.1000000000 0.1000000000 0.1000000000 0.1000000000 0.1000000000 0.1000000000 0.1000000000 0.1000000000 0.1000000000 0.1000000000 0.1000000000 0.1000000000 0.1000000000 0.1000000000 0.1000000000 0.1000000000 0.1000000000 0.1000000000 0.1000000000 0.1000000000 0.1000000000 0.1000000000 0.1000000000 0.1000000000 0.1000000000 0.1000000000 0.1000000000 0.1000000000 0.1000000000 0.1000000000 0.1000000000 0.1000000000 0.1000000000 0.1000000000 0.1000000000 0.1000000000 0.1000000000 0.1000000000 0.1000000000 0.1000000000 0.1000000000 0.1000000000 0.1000000000 0.1000000000 0.1000000000 0.1000000000 0.1000000000 0.1000000000 0.1000000000 0.1000000000 0.1000000000 0.1000000000 0.1000000000 0.1000000000 0.1000000000 0.1000000000 0.1000000000 0.1000000000 0.1000000000 0.1000000000 0.1000000000 0.1000000000 0.1000000000 0.1000000000 0.1000000000 0.1000000000 0.1000000000 0.1000000000 0.1000000000 0.1000000000 0.1000000000 0.1000000000 0.1000000000 0.1000000000 0.1000000000 0.1000000000 0.1000000000 0.1000000000 0.1000000000 0.1000000000 0.1000000000 0.1000000000 0.1000000000 0.1000000000 0.1000000000 0.1000000000 0.1000000000 0.1000000000 0.1000000000 0.1000000000 0.1000000000 0.1000000000 0.1000000000 0.1000000000 0.1000000000 0.1000000000 0.1000000000 0.1000000000 0.1000000000 0.1000000000 0.1000000000 0.1000000000 0.1000000000 0.1000000000 0.1000000000 0.1000000000 0.1000000000 0.1000000000 0.1000000000 0.1000000000 0.1000000000 0.1000000000 0.1000000000 0.1000000000 0.1000000000 0.1000000000 0.1000000000 0.1000000000 0.1000000000 0.1000000000 0.1000000000 0.1000000000 0.1000000000 0.1000000000 0.1000000000 0.1000000000 0.1000000000 0.1000000000 0.1000000000 0.1000000000 0.1000000000 0.1000000000 0.1000000000 0.1000000000 0.1000000000 0.1000000000 0.1000000000 0.1000000000 0.1000000000 0.1000000000 0.1000000000 0.1000000000 0.1000000000 0.1000000000 0.1000000000 0.1000000000 0.1000000000 0.1000000000 0.1000000000 0.1000000000 0.1000000000 0.1000000000 0.1000000000 0.1000000000 0.1000000000 0.1000000000 0.1000000000 0.1000000000 0.1000000000 0.1000000000 0.1000000000 0.1000000000 0.1000000000 0.1000000000 0.1000000000 0.1000000000 0.1000000000 0.1000000000 0.1000000000 0.1000000000 0.1000000000 0.1000000000 0.1000000000 0.1000000000 0.1000000000 0.1000000000 0.1000000000 0.1000000000 0.1000000000 0.1000000000 0.1000000000 0.1000000000 0.1000000000 0.1000000000 0.1000000000 0.1000000000 0.1000000000 0.1000000000 0.1000000000 0.1000000000 0.1000000000 0.1000000000 0.1000000000 0.1000000000 0.1000000000 0.1000000000 0.1000000000 0.1000000000 0.1000000000 0.1000000000 0.1000000000 0.1000000000 0.1000000000 0.1000000000 0.1000000000 0.1000000000 0.1000000000 0.1000000000 0.1000000000 0.1000000000 0.1000000000 0.1000000000 0.1000000000 0.1000000000 0.1000000000 0.1000000000 0.1000000000 0.1000000000 0.1000000000 0.1000000000 0.1000000000 0.1000000000 0.1000000000 0.1000000000 0.1000000000 0.1000000000 0.1000000000 0.1000000000 0.1000000000 0.1000000000 0.1000000000 0.1000000000 0.1000000000 0.1000000000 0.1000000000 0.1000000000 0.1000000000 0.1000000000 0.1000000000 0.1000000000 0.1000000000 0.1000000000 0.1000000000 0.1000000000 0.1000000000 0.1000000000 0.1000000000 0.1000000000 0.1000000000 0.1000000000 0.1000000000 0.1000000000 0.1000000000 0.1000000000 0.1000000000 0.1000000000 0.1000000000 0.1000000000 0.1000000000 0.1000000000 0.1000000000 0.1000000000 0.1000000000 0.1000000000 0.1000000000 0.1000000000 0.1000000000 0.1000000000 0.1000000000 0.1000000000 0.1000000000 0.1000000000 0.1000000000 0.1000000000 0.1000000000 0.1000000000 0.1000000000 0.1000000000 0.1000000000 0.1000000000 0.1000000000 0.1000000000 0.1000000000 0.1000000000 0.1000000000 0.1000000000 0.1000000000 0.1000000000 0.1000000000 0.1000000000 0.1000000000 0.1000000000 0.1000000000 0.1000000000 0.1000000000 0.1000000000 0.1000000000 0.1000000000 0.1000000000 0.1000000000 0.1000000000 0.1000000000 0.1000000000 0.1000000000 0.1000000000 0.1000000000 0.1000000000 0.1000000000 0.1000000000 0.1000000000 0.1000000000 0.1000000000 0.1000000000 0.1000000000 0.1000000000 0.1000000000 0.1000000000 0.1000000000 0.1000000000 0.1000000000 0.1000000000 0.1000000000 0.1000000000 0.1000000000 0.1000000000 0.1000000000 0.1000000000 0.1000000000 0.1000000000 0.1000000000 0.1000000000 0.1000000000 0.1000000000 0.1000000000 0.1000000000 0.1000000000 0.1000000000 0.1000000000 0.1000000000 0.1000000000 0.1000000000 0.1000000000 0.1000000000 0.1000000000 0.1000000000 0.1000000000 0.1000000000 0.1000000000 0.1000000000 0.1000000000 0.1000000000 0.1000000000 0.1000000000 0.1000000000 0.1000000000 0.1000000000 0.1000000000 0.1000000000 0.1000000000 0.1000000000 0.1000000000 0.1000000000 0.1000000000 0.1000000000 0.1000000000 0.1000000000 0.1000000000 0.1000000000 0.1000000000 0.1000000000 0.1000000000 0.1000000000 0.1000000000 0.1000000000 0.1000000000 0.1000000000 0.1000000000 0.1000000000 0.1000000000 0.1000000000 0.1000000000 0.1000000000 0.1000000000 0.1000000000 0.1000000000 0.1000000000 0.1000000000 0.1000000000 0.1000000000 0.1000000000 0.1000000000 0.1000000000 0.1000000000 0.1000000000 0.1000000000 0.1000000000 0.1000000000 0.1000000000 0.1000000000 0.1000000000 0.1000000000 0.1000000000 0.1000000000 0.1000000000 0.1000000000 0.1000000000 0.1000000000 0.1000000000 0.1000000000 0.1000000000 0.1000000000 0.1000000000 0.1000000000 0.1000000000 0.1000000000 0.1000000000 0.1000000000 0.1000000000 0.1000000000 0.1000000000 0.1000000000 0.1000000000 0.1000000000 0.1000000000 0.1000000000 0.1000000000 0.1000000000 0.1000000000 0.1000000000 0.1000000000 0.1000000000 0.1000000000 0.1000000000 0.1000000000 0.1000000000 0.1000000000 0.1000000000 0.1000000000 0.1000000000 0.1000000000 0.1000000000 0.1000000000 0.1000000000 0.1000000000 0.1000000000 0.1000000000 0.1000000000 0.1000000000 0.1000000000 0.1000000000 0.1000000000 0.1000000000 0.1000000000 0.1000000000 0.1000000000 0.1000000000 0.1000000000 0.1000000000 0.1000000000 0.1000000000 0.1000000000 0.1000000000 0.1000000000 0.1000000000 0.1000000000 0.1000000000 0.1000000000 0.1000000000 0.1000000000 0.1000000000 0.1000000000 0.1000000000 0.1000000000 0.1000000000 0.1000000000 0.1000000000 0.1000000000 0.1000000000 0.1000000000 0.1000000000 0.1000000000 0.1000000000 0.1000000000 0.1000000000 0.1000000000 0.1000000000 0.1000000000 0.1000000000 0.1000000000 0.1000000000 0.1000000000 0.1000000000 0.1000000000 0.1000000000 0.1000000000 0.1000000000 0.1000000000 0.1000000000 0.1000000000 0.1000000000 0.1000000000 0.1000000000 0.1000000000 0.1000000000 0.1000000000 0.1000000000 0.1000000000 0.1000000000 0.1000000000 0.1000000000 0.1000000000 0.1000000000 0.1000000000 0.1000000000 0.1000000000 0.1000000000 0.1000000000 0.1000000000 0.1000000000 0.1000000000 0.1000000000 0.1000000000 0.1000000000 0.1000000000 0.1000000000 0.1000000000 0.1000000000 0.1000000000 0.1000000000 0.1000000000 0.1000000000 0.1000000000 0.1000000000 0.1000000000 0.1000000000 0.1000000000 0.1000000000 0.1000000000 0.1000000000 0.1000000000 0.1000000000 0.1000000000 0.1000000000 0.1000000000 0.1000000000 0.1000000000 0.1000000000 0.1000000000 0.1000000000 0.1000000000 0.1000000000 0.1000000000 0.1000000000 0.1000000000 0.1000000000 0.1000000000 0.1000000000 0.1000000000 0.1000000000 0.1000000000 0.1000000000 0.1000000000 0.1000000000 0.1000000000 0.1000000000 0.1000000000 0.1000000000 0.1000000000 0.1000000000 0.1000000000 0.1000000000 0.1000000000 0.1000000000 0.1000000000 0.1000000000 0.1000000000 0.1000000000 0.1000000000 0.1000000000 0.1000000000 0.1000000000 0.1000000000 0.1000000000 0.1000000000 0.1000000000 0.1000000000 0.1000000000 0.1000000000 0.1000000000 0.1000000000 0.1000000000 0.1000000000 0.1000000000 0.1000000000 0.1000000000 0.1000000000 0.1000000000 0.1000000000 0.1000000000 0.1000000000 0.1000000000 0.1000000000 0.1000000000 0.1000000000 0.1000000000 0.1000000000 0.1000000000 0.1000000000 0.1000000000 0.1000000000 0.1000000000 0.1000000000 0.1000000000 0.1000000000 0.1000000000 0.1000000000 0.1000000000 0.1000000000 0.1000000000 0.1000000000 0.1000000000 0.1000000000 0.1000000000 0.1000000000 0.1000000000 0.1000000000 0.1000000000 0.1000000000 0.1000000000 0.1000000000 0.1000000000 0.1000000000 0.1000000000 0.1000000000 0.1000000000 0.1000000000 0.1000000000 0.1000000000 0.1000000000 0.1000000000 0.1000000000 0.1000000000 0.1000000000 0.1000000000 0.1000000000 0.1000000000 0.1000000000 0.1000000000 0.1000000000 0.1000000000 0.1000000000 0.1000000000 0.1000000000 0.1000000000 0.1000000000 0.1000000000 0.1000000000 0.1000000000 0.1000000000 0.1000000000 0.1000000000 0.1000000000 0.1000000000 0.1000000000 0.1000000000 0.1000000000 0.1000000000 0.1000000000 0.1000000000 0.1000000000 0.1000000000 0.1000000000 0.1000000000 0.1000000000 0.1000000000 0.1000000000 0.1000000000 0.1000000000 0.1000000000 0.1000000000 0.1000000000 0.1000000000 0.1000000000 0.1000000000 0.1000000000 0.1000000000 0.1000000000 0.1000000000 0.1000000000 0.1000000000 0.1000000000 0.1000000000 0.1000000000 0.1000000000 0.1000000000 0.1000000000 0.1000000000 0.1000000000 0.1000000000 0.1000000000 0.1000000000 0.1000000000 0.1000000000 0.1000000000 0.1000000000 0.1000000000 0.1000000000 0.1000000000 0.1000000000 0.1000000000 0.1000000000 0.1000000000 0.1000000000 0.1000000000 0.1000000000 0.1000000000 0.1000000000 0.1000000000 0.1000000000 0.1000000000 0.1000000000 0.1000000000 0.10000000