<?xml version="1.0"?>
<VTKFile type="UnstructuredGrid" version="0.1" byte_order="LittleEndian">
  <UnstructuredGrid>
    <FieldData>
      <DataArray type="Float32" Name="TIME"  NumberOfTuples="1" format="ascii"> 0.5500000000 </DataArray>
      <DataArray type="Int32"   Name="STEP"  NumberOfTuples="1" format="ascii"> 137500 </DataArray>
    </FieldData>
    <Piece NumberOfPoints="11600" NumberOfCells="11600">
      <Points>
        <DataArray type="Float32" NumberOfComponents="3" format="ascii">
 -0.0867583591 -0.2022332438 0.0000000000 0.1132373894 -0.2009284687 0.0000000000 0.3132331395 -0.1996236846 0.0000000000 0.5132288984 -0.1983188997 0.0000000000 0.7132246633 -0.1970141208 0.0000000000 0.9132204331 -0.1957093412 0.0000000000 1.1132162029 -0.1944045717 0.0000000000 1.3132119810 -0.1930998317 0.0000000000 1.5132080109 -0.1917950480 0.0000000000 1.7132038265 -0.1904902420 0.0000000000 1.9131996682 -0.1891854523 0.0000000000 2.1131955216 -0.1878806565 0.0000000000 2.3131913624 -0.1865758714 0.0000000000 2.5131876005 -0.1852710402 0.0000000000 2.7131834517 -0.1839661743 0.0000000000 2.9131793320 -0.1826613515 0.0000000000 3.1131752265 -0.1813565384 0.0000000000 3.3131711024 -0.1800517450 0.0000000000 3.5131675375 -0.1787468588 0.0000000000 3.7131634165 -0.1774419038 0.0000000000 3.9131593191 -0.1761369783 0.0000000000 4.1131552184 -0.1748320538 0.0000000000 4.3131510882 -0.1735271731 0.0000000000 4.5131474956 -0.1722222291 0.0000000000 4.7131433717 -0.1709171962 0.0000000000 4.9131392680 -0.1696121768 0.0000000000 5.1131351561 -0.1683071467 0.0000000000 5.3131310123 -0.1670021271 0.0000000000 5.5131272733 -0.1656970106 0.0000000000 5.7131231078 -0.1643918531 0.0000000000 5.9131189605 -0.1630867242 0.0000000000 6.1131148196 -0.1617815932 0.0000000000 6.3131106582 -0.1604764691 0.0000000000 6.5131067887 -0.1591712929 0.0000000000 6.7131026037 -0.1578661038 0.0000000000 6.9130984305 -0.1565609436 0.0000000000 7.1130942570 -0.1552557995 0.0000000000 7.3130900652 -0.1539506758 0.0000000000 7.5130861061 -0.1526455316 0.0000000000 7.7130818883 -0.1513403733 0.0000000000 7.9130776775 -0.1500352488 0.0000000000 8.1130734692 -0.1487301338 0.0000000000 8.3130692478 -0.1474250374 0.0000000000 8.5130651486 -0.1461199776 0.0000000000 8.7130609452 -0.1448148913 0.0000000000 8.9130567493 -0.1435097808 0.0000000000 9.1130525474 -0.1422046500 0.0000000000 9.3130483377 -0.1408995302 0.0000000000 9.5130442939 -0.1395943797 0.0000000000 9.7130400624 -0.1382892337 0.0000000000 9.9130358335 -0.1369841075 0.0000000000 10.1130315995 -0.1356789816 0.0000000000 10.3130273620 -0.1343738718 0.0000000000 10.5130232528 -0.1330687532 0.0000000000 10.7130190136 -0.1317636032 0.0000000000 10.9130147666 -0.1304584452 0.0000000000 11.1130105250 -0.1291532961 0.0000000000 11.3130062882 -0.1278481493 0.0000000000 11.5130020976 -0.1265429881 0.0000000000 11.7129978860 -0.1252378358 0.0000000000 11.9129936930 -0.1239326680 0.0000000000 12.1129895077 -0.1226274871 0.0000000000 12.3129853117 -0.1213223013 0.0000000000 12.5129813102 -0.1200170565 0.0000000000 12.7129771004 -0.1187118310 0.0000000000 12.9129731017 -0.1174065900 0.0000000000 13.1129688955 -0.1161013028 0.0000000000 13.3129646885 -0.1147960208 0.0000000000 13.5129606127 -0.1134906813 0.0000000000 13.7129563780 -0.1121853209 0.0000000000 13.9129522470 -0.1108798889 0.0000000000 14.1163826134 -0.1097080948 0.0000000000 14.3163826094 -0.1097451026 0.0000000000 14.5163826054 -0.1097821100 0.0000000000 14.7163826040 -0.1098191169 0.0000000000 14.9163826001 -0.1098561246 0.0000000000 15.1163825972 -0.1098931316 0.0000000000 15.3163825943 -0.1099301393 0.0000000000 15.5163825904 -0.1099671466 0.0000000000 15.7163825884 -0.1100041540 0.0000000000 15.9163825846 -0.1100411616 0.0000000000 16.1163825821 -0.1100781690 0.0000000000 16.3163825791 -0.1101151760 0.0000000000 16.5338520069 -0.0844078413 0.0000000010 16.7338487136 -0.0832582243 0.0000000009 16.9338455610 -0.0821086660 0.0000000009 17.1338423066 -0.0809590738 0.0000000009 17.3338390617 -0.0798094868 0.0000000009 17.5338358228 -0.0786598847 0.0000000008 17.7338325702 -0.0775102578 0.0000000008 17.9338294214 -0.0763605790 0.0000000008 18.1338261285 -0.0752108972 0.0000000007 18.3338228350 -0.0740612467 0.0000000007 18.5338195380 -0.0729116173 0.0000000007 18.7338162489 -0.0717620058 0.0000000007 18.9338130728 -0.0706124132 0.0000000006 19.1338098144 -0.0694627765 0.0000000006 19.3338065714 -0.0683131007 0.0000000005 19.5338033176 -0.0671633857 0.0000000005 19.7338000403 -0.0660136667 0.0000000004 0.0121095365 -0.0283794804 0.0000000000 0.2121052879 -0.0270746963 0.0000000000 0.4121010453 -0.0257699083 0.0000000000 0.6120968105 -0.0244651280 0.0000000000 0.8120925789 -0.0231603492 0.0000000000 1.0120883610 -0.0218555753 0.0000000000 1.2120841671 -0.0205508200 0.0000000000 1.4120800278 -0.0192460728 0.0000000000 1.6120759073 -0.0179412743 0.0000000000 1.8120717592 -0.0166364795 0.0000000000 2.0120676208 -0.0153316897 0.0000000000 2.2120635088 -0.0140268943 0.0000000000 2.4120594776 -0.0127221036 0.0000000000 2.6120554520 -0.0114172428 0.0000000000 2.8120513718 -0.0101124027 0.0000000000 3.0120472924 -0.0088075875 0.0000000000 3.2120432339 -0.0075027744 0.0000000000 3.4120392710 -0.0061979631 0.0000000000 3.6120353120 -0.0048930207 0.0000000000 3.8120312614 -0.0035880860 0.0000000000 4.0120271937 -0.0022831573 0.0000000000 4.2120231389 -0.0009782463 0.0000000000 4.4120191660 0.0003266401 0.0000000000 4.6120151914 0.0016316529 0.0000000000 4.8120111272 0.0029366729 0.0000000000 5.0120070433 0.0042417007 0.0000000000 5.2120029550 0.0055467377 0.0000000000 5.4119989190 0.0068517854 0.0000000000 5.6119948732 0.0081569381 0.0000000000 5.8119907569 0.0094620819 0.0000000000 6.0119866294 0.0107672104 0.0000000000 6.2119825077 0.0120723406 0.0000000000 6.4119784377 0.0133774781 0.0000000000 6.6119743592 0.0146826692 0.0000000000 6.8119702174 0.0159878416 0.0000000000 7.0119660652 0.0172929913 0.0000000000 7.2119619127 0.0185981274 0.0000000000 7.4119577993 0.0199032527 0.0000000000 7.6119536720 0.0212084198 0.0000000000 7.8119494916 0.0225135648 0.0000000000 8.0119453016 0.0238186860 0.0000000000 8.2119411140 0.0251237949 0.0000000000 8.4119369530 0.0264288747 0.0000000000 8.6119327858 0.0277339484 0.0000000000 8.8119285914 0.0290390471 0.0000000000 9.0119243910 0.0303441709 0.0000000000 9.2119201981 0.0316492949 0.0000000000 9.4119160349 0.0329544219 0.0000000000 9.6119118681 0.0342595831 0.0000000000 9.8119076643 0.0355647188 0.0000000000 10.0119034441 0.0368698446 0.0000000000 10.2118992237 0.0381749635 0.0000000000 10.4118950233 0.0394800757 0.0000000000 10.6118908168 0.0407852163 0.0000000000 10.8118865826 0.0420903690 0.0000000000 11.0118823452 0.0433955192 0.0000000000 11.2118781123 0.0447006656 0.0000000000 11.4118738942 0.0460058185 0.0000000000 11.6118696906 0.0473109671 0.0000000000 11.8118654883 0.0486161237 0.0000000000 12.0118612993 0.0499212934 0.0000000000 12.2118571235 0.0512264789 0.0000000000 12.4118529854 0.0525316811 0.0000000000 12.6118488568 0.0538369207 0.0000000000 12.8118447228 0.0551421447 0.0000000000 13.0118405783 0.0564474177 0.0000000000 13.2118363963 0.0577527016 0.0000000000 13.4118322190 0.0590580055 0.0000000000 13.6118280238 0.0603633667 0.0000000000 13.8118237909 0.0616687425 0.0000000000 14.0164146622 0.0635154835 0.0000000000 14.2164146601 0.0634784778 0.0000000000 14.4164146570 0.0634414706 0.0000000000 14.6164146540 0.0634044628 0.0000000000 14.8164146510 0.0633674556 0.0000000000 15.0164146480 0.0633304480 0.0000000000 15.2164146447 0.0632934406 0.0000000000 15.4164146415 0.0632564334 0.0000000000 15.6164146388 0.0632194255 0.0000000000 15.8164146356 0.0631824186 0.0000000000 16.0164146328 0.0631454113 0.0000000000 16.2164146270 0.0631084017 0.0000000000 16.4328579953 0.0882195674 0.0000000009 16.6328547307 0.0893691924 0.0000000008 16.8328515148 0.0905187726 0.0000000008 17.0328483130 0.0916683509 0.0000000008 17.2328450836 0.0928179382 0.0000000007 17.4328418419 0.0939675349 0.0000000007 17.6328385956 0.0951171507 0.0000000007 17.8328353593 0.0962667973 0.0000000006 18.0328321168 0.0974164796 0.0000000006 18.2328288483 0.0985661464 0.0000000005 18.4328255681 0.0997157847 0.0000000005 18.6328222967 0.1008654003 0.0000000005 18.8328190477 0.1020149977 0.0000000004 19.0328157989 0.1031646165 0.0000000004 19.2328125365 0.1043142625 0.0000000003 19.4328092711 0.1054639570 0.0000000002 19.6328060024 0.1066136751 0.0000000001 19.8328027253 0.1077633926 0.0000000000 -0.0890183417 0.1441694868 0.0000000000 0.1109774254 0.1454742758 0.0000000000 0.3109731821 0.1467790695 0.0000000000 0.5109689530 0.1480838581 0.0000000000 0.7109647193 0.1493886382 0.0000000000 0.9109604980 0.1506934136 0.0000000000 1.1109562964 0.1519981771 0.0000000000 1.3109521016 0.1533029324 0.0000000000 1.5109480204 0.1546076966 0.0000000000 1.7109438556 0.1559124856 0.0000000000 1.9109397107 0.1572172757 0.0000000000 2.1109355814 0.1585220642 0.0000000000 2.3109314524 0.1598268596 0.0000000000 2.5109275191 0.1611316951 0.0000000000 2.7109234085 0.1624365297 0.0000000000 2.9109193258 0.1637413549 0.0000000000 3.1109152485 0.1650461745 0.0000000000 3.3109111562 0.1663509959 0.0000000000 3.5109072987 0.1676558756 0.0000000000 3.7109032092 0.1689608018 0.0000000000 3.9108991378 0.1702657311 0.0000000000 4.1108950678 0.1715706554 0.0000000000 4.3108909772 0.1728755665 0.0000000000 4.5108871043 0.1741805148 0.0000000000 4.7108830025 0.1754855228 0.0000000000 4.9108789162 0.1767905472 0.0000000000 5.1108748197 0.1780955878 0.0000000000 5.3108706945 0.1794006375 0.0000000000 5.5108667185 0.1807057494 0.0000000000 5.7108625743 0.1820108853 0.0000000000 5.9108584422 0.1833160179 0.0000000000 6.1108543090 0.1846211448 0.0000000000 6.3108501637 0.1859262750 0.0000000000 6.5108461660 0.1872314513 0.0000000000 6.7108420086 0.1885366193 0.0000000000 6.9108378615 0.1898417717 0.0000000000 7.1108337128 0.1911469130 0.0000000000 7.3108295460 0.1924520471 0.0000
[...]
      <PointData Scalars="radius">
        <DataArray type="Float32" Name="radius" format="ascii">
 0.1000000000 0.1000000000 0.1000000000 0.1000000000 0.1000000000 0.1000000000 0.1000000000 0.1000000000 0.1000000000 0.1000000000 0.1000000000 0.1000000000 0.1000000000 0.1000000000 0.1000000000 0.1000000000 0.1000000000 0.1000000000 0.1000000000 0.1000000000 0.1000000000 0.1000000000 0.1000000000 0.1000000000 0.1000000000 0.1000000000 0.1000000000 0.1000000000 0.1000000000 0.1000000000 0.1000000000 0.1000000000 0.1000000000 0.1000000000 0.1000000000 0.1000000000 0.1000000000 0.1000000000 0.1000000000 0.1000000000 0.1000000000 0.1000000000 0.1000000000 0.1000000000 0.1000000000 0.1000000000 0.1000000000 0.1000000000 0.1000000000 0.1000000000 0.1000000000 0.1000000000 0.1000000000 0.1000000000 0.1000000000 0.1000000000 0.1000000000 0.1000000000 0.1000000000 0.1000000000 0.1000000000 0.1000000000 0.1000000000 0.1000000000 0.1000000000 0.1000000000 0.1000000000 0.1000000000 0.1000000000 0.1000000000 0.1000000000 0.1000000000 0.1000000000 0.1000000000 0.1000000000 0.1000000000 0.1000000000 0.1000000000 0.1000000000 0.1000000000 0.1000000000 0.1000000000 0.1000000000 0.1000000000 0.1000000000 0.1000000000 0.1000000000 0.1000000000 0.1000000000 0.1000000000 0.1000000000 0.1000000000 0.1000000000 0.1000000000 0.1000000000 0.1000000000 0.1000000000 0.1000000000 0.1000000000 0.1000000000 0.1000000000 0.1000000000 0.1000000000 0.1000000000 0.1000000000 0.1000000000 0.1000000000 0.1000000000 0.1000000000 0.1000000000 0.1000000000 0.1000000000 0.1000000000 0.1000000000 0.1000000000 0.1000000000 0.1000000000 0.1000000000 0.1000000000 0.1000000000 0.1000000000 0.1000000000 0.1000000000 0.1000000000 0.1000000000 0.1000000000 0.1000000000 0.1000000000 0.1000000000 0.1000000000 0.1000000000 0.1000000000 0.1000000000 0.1000000000 0.1000000000 0.1000000000 0.1000000000 0.1000000000 0.1000000000 0.1000000000 0.1000000000 0.1000000000 0.1000000000 0.1000000000 0.1000000000 0.1000000000 0.1000000000 0.1000000000 0.1000000000 0.1000000000 0.1000000000 0.1000000000 0.1000000000 0.1000000000 0.1000000000 0.1000000000 0.1000000000 0.1000000000 0.1000000000 0.1000000000 0.1000000000 0.1000000000 0.1000000000 0.1000000000 0.1000000000 0.1000000000 0.1000000000 0.1000000000 0.1000000000 0.1000000000 0.1000000000 0.1000000000 0.1000000000 0.1000000000 0.1000000000 0.1000000000 0.1000000000 0.1000000000 0.1000000000 0.1000000000 0.1000000000 0.1000000000 0.1000000000 0.1000000000 0.1000000000 0.1000000000 0.1000000000 0.1000000000 0.1000000000 0.1000000000 0.1000000000 0.1000000000 0.1000000000 0.1000000000 0.1000000000 0.1000000000 0.1000000000 0.1000000000 0.1000000000 0.1000000000 0.1000000000 0.1000000000 0.1000000000 0.1000000000 0.1000000000 0.1000000000 0.1000000000 0.1000000000 0.1000000000 0.1000000000 0.1000000000 0.1000000000 0.1000000000 0.1000000000 0.1000000000 0.1000000000 0.1000000000 0.1000000000 0.1000000000 0.1000000000 0.1000000000 0.1000000000 0.1000000000 0.1000000000 0.1000000000 0.1000000000 0.1000000000 0.1000000000 0.1000000000 0.1000000000 0.1000000000 0.1000000000 0.1000000000 0.1000000000 0.1000000000 0.1000000000 0.1000000000 0.1000000000 0.1000000000 0.1000000000 0.1000000000 0.1000000000 0.1000000000 0.1000000000 0.1000000000 0.1000000000 0.1000000000 0.1000000000 0.1000000000 0.1000000000 0.1000000000 0.1000000000 0.1000000000 0.1000000000 0.1000000000 0.1000000000 0.1000000000 0.1000000000 0.1000000000 0.1000000000 0.1000000000 0.1000000000 0.1000000000 0.1000000000 0.1000000000 0.1000000000 0.1000000000 0.1000000000 0.1000000000 0.1000000000 0.1000000000 0.1000000000 0.1000000000 0.1000000000 0.1000000000 0.1000000000 0.1000000000 0.1000000000 0.1000000000 0.1000000000 0.1000000000 0.1000000000 0.1000000000 0.1000000000 0.1000000000 0.1000000000 0.1000000000 0.1000000000 0.1000000000 0.1000000000 0.1000000000 0.1000000000 0.1000000000 0.1000000000 0.1000000000 0.1000000000 0.1000000000 0.1000000000 0.1000000000 0.1000000000 0.1000000000 0.1000000000 0.1000000000 0.1000000000 0.1000000000 0.1000000000 0.1000000000 0.1000000000 0.1000000000 0.1000000000 0.1000000000 0.1000000000 0.1000000000 0.1000000000 0.1000000000 0.1000000000 0.1000000000 0.1000000000 0.1000000000 0.1000000000 0.1000000000 0.1000000000 0.1000000000 0.1000000000 0.1000000000 0.1000000000 0.1000000000 0.1000000000 0.1000000000 0.1000000000 0.1000000000 0.1000000000 0.1000000000 0.1000000000 0.1000000000 0.1000000000 0.1000000000 0.1000000000 0.1000000000 0.1000000000 0.1000000000 0.1000000000 0.1000000000 0.1000000000 0.1000000000 0.1000000000 0.1000000000 0.1000000000 0.1000000000 0.1000000000 0.1000000000 0.1000000000 0.1000000000 0.1000000000 0.1000000000 0.1000000000 0.1000000000 0.1000000000 0.1000000000 0.1000000000 0.1000000000 0.1000000000 0.1000000000 0.1000000000 0.1000000000 0.1000000000 0.1000000000 0.1000000000 0.1000000000 0.1000000000 0.1000000000 0.1000000000 0.1000000000 0.1000000000 0.1000000000 0.1000000000 0.1000000000 0.1000000000 0.1000000000 0.1000000000 0.1000000000 0.1000000000 0.1000000000 0.1000000000 0.1000000000 0.1000000000 0.1000000000 0.1000000000 0.1000000000 0.1000000000 0.1000000000 0.1000000000 0.1000000000 0.1000000000 0.1000000000 0.1000000000 0.1000000000 0.1000000000 0.1000000000 0.1000000000 0.1000000000 0.1000000000 0.1000000000 0.1000000000 0.1000000000 0.1000000000 0.1000000000 0.1000000000 0.1000000000 0.1000000000 0.1000000000 0.1000000000 0.1000000000 0.1000000000 0.1000000000 0.1000000000 0.1000000000 0.1000000000 0.1000000000 0.1000000000 0.1000000000 0.1000000000 0.1000000000 0.1000000000 0.1000000000 0.1000000000 0.1000000000 0.1000000000 0.1000000000 0.1000000000 0.1000000000 0.1000000000 0.1000000000 0.1000000000 0.1000000000 0.1000000000 0.1000000000 0.1000000000 0.1000000000 0.1000000000 0.1000000000 0.1000000000 0.1000000000 0.1000000000 0.1000000000 0.1000000000 0.1000000000 0.1000000000 0.1000000000 0.1000000000 0.1000000000 0.1000000000 0.1000000000 0.1000000000 0.1000000000 0.1000000000 0.1000000000 0.1000000000 0.1000000000 0.1000000000 0.1000000000 0.1000000000 0.1000000000 0.1000000000 0.1000000000 0.1000000000 0.1000000000 0.1000000000 0.1000000000 0.1000000000 0.1000000000 0.1000000000 0.1000000000 0.1000000000 0.1000000000 0.1000000000 0.1000000000 0.1000000000 0.1000000000 0.1000000000 0.1000000000 0.1000000000 0.1000000000 0.1000000000 0.1000000000 0.1000000000 0.1000000000 0.1000000000 0.1000000000 0.1000000000 0.1000000000 0.1000000000 0.1000000000 0.1000000000 0.1000000000 0.1000000000 0.1000000000 0.1000000000 0.1000000000 0.1000000000 0.1000000000 0.1000000000 0.1000000000 0.1000000000 0.1000000000 0.1000000000 0.1000000000 0.1000000000 0.1000000000 0.1000000000 0.1000000000 0.1000000000 0.1000000000 0.1000000000 0.1000000000 0.1000000000 0.1000000000 0.1000000000 0.1000000000 0.1000000000 0.1000000000 0.1000000000 0.1000000000 0.1000000000 0.1000000000 0.1000000000 0.1000000000 0.1000000000 0.1000000000 0.1000000000 0.1000000000 0.1000000000 0.1000000000 0.1000000000 0.1000000000 0.1000000000 0.1000000000 0.1000000000 0.1000000000 0.1000000000 0.1000000000 0.1000000000 0.1000000000 0.1000000000 0.1000000000 0.1000000000 0.1000000000 0.1000000000 0.1000000000 0.1000000000 0.1000000000 0.1000000000 0.1000000000 0.1000000000 0.1000000000 0.1000000000 0.1000000000 0.1000000000 0.1000000000 0.1000000000 0.1000000000 0.1000000000 0.1000000000 0.1000000000 0.1000000000 0.1000000000 0.1000000000 0.1000000000 0.1000000000 0.1000000000 0.1000000000 0.1000000000 0.1000000000 0.1000000000 0.1000000000 0.1000000000 0.1000000000 0.1000000000 0.1000000000 0.1000000000 0.1000000000 0.1000000000 0.1000000000 0.1000000000 0.1000000000 0.1000000000 0.1000000000 0.1000000000 0.1000000000 0.1000000000 0.1000000000 0.1000000000 0.1000000000 0.1000000000 0.1000000000 0.1000000000 0.1000000000 0.1000000000 0.1000000000 0.1000000000 0.1000000000 0.1000000000 0.1000000000 0.1000000000 0.1000000000 0.1000000000 0.1000000000 0.1000000000 0.1000000000 0.1000000000 0.1000000000 0.1000000000 0.1000000000 0.1000000000 0.1000000000 0.1000000000 0.1000000000 0.1000000000 0.1000000000 0.1000000000 0.1000000000 0.1000000000 0.1000000000 0.1000000000 0.1000000000 0.1000000000 0.1000000000 0.1000000000 0.1000000000 0.1000000000 0.1000000000 0.1000000000 0.1000000000 0.1000000000 0.1000000000 0.1000000000 0.1000000000 0.1000000000 0.1000000000 0.1000000000 0.1000000000 0.1000000000 0.1000000000 0.1000000000 0.1000000000 0.1000000000 0.1000000000 0.1000000000 0.1000000000 0.1000000000 0.1000000000 0.1000000000 0.1000000000 0.1000000000 0.1000000000 0.1000000000 0.1000000000 0.1000000000 0.1000000000 0.1000000000 0.1000000000 0.1000000000 0.1000000000 0.1000000000 0.1000000000 0.1000000000 0.1000000000 0.1000000000 0.1000000000 0.1000000000 0.1000000000 0.1000000000 0.1000000000 0.1000000000 0.1000000000 0.1000000000 0.1000000000 0.1000000000 0.1000000000 0.1000000000 0.1000000000 0.1000000000 0.1000000000 0.1000000000 0.1000000000 0.1000000000 0.1000000000 0.1000000000 0.1000000000 0.1000000000 0.1000000000 0.1000000000 0.1000000000 0.1000000000 0.1000000000 0.1000000000 0.1000000000 0.1000000000 0.1000000000 0.1000000000 0.1000000000 0.1000000000 0.1000000000 0.1000000000 0.1000000000 0.1000000000 0.1000000000 0.1000000000 0.1000000000 0.1000000000 0.1000000000 0.1000000000 0.1000000000 0.1000000000 0.1000000000 0.1000000000 0.1000000000 0.1000000000 0.1000000000 0.1000000000 0.1000000000 0.1000000000 0.1000000000 0.1000000000 0.1000000000 0.1000000000 0.1000000000 0.1000000000 0.1000000000 0.1000000000 0.1000000000 0.1000000000 0.1000000000 0.1000000000 0.1000000000 0.1000000000 0.1000000000 0.1000000000 0.1000000000 0.1000000000 0.1000000000 0.1000000000 0.1000000000 0.1000000000 0.1000000000 0.1000000000 0.1000000000 0.1000000000 0.1000000000 0.1000000000 0.1000000000 0.1000000000 0.1000000000 0.1000000000 0.1000000000 0.1000000000 0.1000000000 0.1000000000 0.1000000000 0.1000000000 0.1000000000 0.1000000000 0.1000000000 0.1000000000 0.1000000000 0.1000000000 0.1000000000 0.1000000000 0.1000000000 0.1000000000 0.1000000000 0.1000000000 0.1000000000 0.1000000000 0.1000000000 0.1000000000 0.1000000000 0.1000000000 0.1000000000 0.1000000000 0.1000000000 0.1000000000 0.1000000000 0.1000000000 0.1000000000 0.1000000000 0.1000000000 0.1000000000 0.1000000000 0.1000000000 0.1000000000 0.1000000000 0.1000000000 0.1000000000 0.1000000000 0.1000000000 0.1000000000 0.1000000000 0.1000000000 0.1000000000 0.1000000000 0.1000000000 0.1000000000 0.1000000000 0.1000000000 0.1000000000 0.1000000000 0.1000000000 0.1000000000 0.1000000000 0.1000000000 0.1000000000 0.1000000000 0.1000000000 0.1000000000 0.1000000000 0.1000000000 0.1000000000 0.1000000000 0.1000000000 0.1000000000 0.1000000000 0.1000000000 0.1000000000 0.1000000000 0.1000000000 0.1000000000 0.1000000000 0.1000000000 0.1000000000 0.1000000000 0.1000000000 0.1000000000 0.1000000000 0.1000000000 0.1000000000 0.1000000000 0.1000000000 0.1000000000 0.1000000000 0.1000000000 0.1000000000 0.1000000000 0.1000000000 0.1000000000 0.1000000000 0.1000000000 0.1000000000 0.1000000000 0.1000000000 0.1000000000 0.1000000000 0.1000000000 0.1000000000 0.1000000000 0.1000000000 0.1000000000 0.1000000000 0.1000000000 0.1000000000 0.1000000000 0.1000000000 0.1000000000 0.1000000000 0.1000000000 0.1000000000 0.1000000000 0.1000000000 0.1000000000 0.1000000000 0.1000000000 0.1000000000 0.1000000000 0.1000000000 0.1000000000 0.1000000000 0.1000000000 0.1000000000 0.1000000000 0.1000000000 0.1000000000 0.1000000000 0.1000000000 0.1000000000 0.1000000000 0.1000000000 0.1000000000 0.1000000000 0.1000000000 0.1000000000 0.1000000000 0.1000000000 0.1000000000 0.1000000000 0.1000000000 0.1000000000 0.1000000000 0.1000000000 0.1000000000 0.1000000000 0.1000000000 0.1000000000 0.1000000000 0.1000000000 0.1000000000 0.1000000000 0.1000000000 0.1000000000 0.1000000000 0.1000000000 0.1000000000 0.1000000000 0.1000000000 0.1000000000 0.1000000000 0.1000000000 0.1000000000 0.1000000000 0.1000000000 0.1000000000 0.1000000000 0.1000000000 0.1000000000 0.1000000000 0.1000000000 0.1000000000 0.1000000000 0.1000000000 0.1000000000 0.1000000000 0.1000000000 0.1000000000 0.1000000000 0.1000000000 0.1000000000 0.1000000000 0.1000000000 0.1000000000 0.1000000000 0.1000000000 0.1000000000 0.1000000000 0.1000000000 0.1000000000 0.1000000000 0.1000000000 0.1000000000 0.1000000000 0.1000000000 0.1000000000 0.1000000000 0.1000000000 0.1000000000 0.1000000000 0.1000000000 0.1000000000 0.1000000000 0.1000000000 0.1000000000 0.1000000000 0.1000000000 0.1000000000 0.1000000000 0.1000000000 0.1000000000 0.1000000000 0.1000000000 0.1000000000 0.1000000000 0.1000000000 0.1000000000 0.1000000000 0.1000000000 0.1000000000 0.1000000000 0.1000000000 0.1000000000 0.1000000000 0.1000000000 0.1000000000 0.1000000000 0.1000000000 0.1000000000 0.1000000000 0.1000000000 0.1000000000 0.1000000000 0.1000000000 0.1000000000 0.1000000000 0.1000000000 0.1000000000 0.1000000000 0.1000000000 0.1000000000 0.1000000000 0.1000000000 0.1000000000 0.1000000000 0.1000000000 0.1000000000 0.1000000000 0.1000000000 0.1000000000 0.1000000000 0.1000000000 0.1000000000 0.1000000000 0.1000000000 0.1000000000 0.1000000000 0.1000000000 0.1000000000 0.1000000000 0.1000000000 0.1000000000 0.1000000000 0.1000000000 0.1000000000 0.1000000000 0.1000000000 0.1000000000 0.1000000000 0.1000000000 0.1000000000 0.1000000000 0.1000000000 0.1000000000 0.1000000000 0.1000000000 0.1000000000 0.1000000000 0.1000000000 0.1000000000 0.1000000000 0.1000000000 0.1000000000 0.1000000000 0.1000000000 0.1000000000 0.1000000000 0.1000000000 0.1000000000 0.1000000000 0.1000000000 0.1000000000 0.1000000000 0.1000000000 0.1000000000 0.1000000000 0.1000000000 0.1000000000 0.1000000000 0.1000000000 0.1000000000 0.1000000000 0.1000000000 0.1000000000 0.1000000000 0.1000000000 0.1000000000 0.1000000000 0.1000000000 0.1000000000 0.1000000000 0.1000000000 0.1000000000 0.1000000000 0.1000000000 0.1000000000 0.1000000000 0.1000000000 0.1000000000 0.1000000000 0.1000000000 0.1000000000 0.1000000000 0.1000000000 0.1000000000 0.1000000000 0.1000000000 0.1000000000 0.1000000000 0.1000000000 0.1000000000 0.1000000000 0.1000000000 0.1000000000 0.1000000000 0.1000000000 0.1000000000 0.1000000000 0.1000000000 0.1000000000 0.1000000000 0.1000000000 0.1000000000 0.1000000000 0.1000000000 0.1000000000 0.1000000000 0.1000000000 0.1000000000 0.1000000000 0.1000000000 0.1000000000 0.1000000000 0.1000000000 0.1000000000 0.1000000000 0.1000000000 0.1000000000 0.1000000000 0.1000000000 0.1000000000 0.1000000000 0.1000000000 0.1000000000 0.1000000000 0.1000000000 0.1000000000 0.1000000000 0.1000000000 0.1000000000 0.1000000000 0.1000000000 0.1000000000 0.1000000000 0.1000000000 0.1000000000 0.1000000000 0.1000000000 0.1000000000 0.1000000000 0.1000000000 0.1000000000 0.1000000000 0.1000000000 0.1000000000 0.1000000000 0.1000000000 0.1000000000 0.1000000000 0.1000000000 0.1000000000 0.1000000000 0.1000000000 0.1000000000 0.1000000000 0.1000000000 0.1000000000 0.1000000000 0.1000000000 0.1000000000 0.1000000000 0.1000000000 0.1000000000 0.1000000000 0.1000000000 0.1000000000 0.1000000000 0.1000000000 0.1000000000 0.1000000000 0.1000000000 0.1000000000 0.1000000000 0.1000000000 0.1000000000 0.1000000000 0.1000000000 0.1000000000 0.1000000000 0.1000000000 0.1000000000 0.1000000000 0.1000000000 0.1000000000 0.1000000000 0.1000000000 0.1000000000 0.1000000000 0.1000000000 0.1000000000 0.1000000000 0.1000000000 0.1000000000 0.1000000000 0.1000000000 0.1000000000 0.1000000000 0.1000000000 0.1000000000 0.1000000000 0.1000000000 0.1000000000 0.1000000000 0.1000000000 0.1000000000 0.1000000000 0.1000000000 0.1000000000 0.1000000000 0.1000000000 0.1000000000 0.1000000000 0.1000000000 0.1000000000 0.1000000000 0.1000000000 0.1000000000 0.1000000000 0.1000000000 0.1000000000 0.1000000000 0.1000000000 0.1000000000 0.1000000000 0.1000000000 0.1000000000 0.1000000000 0.1000000000 0.1000000000 0.1000000000 0.1000000000 0.1000000000 0.1000000000 0.1000000000 0.1000000000 0.1000000000 0.1000000000 0.1000000000 0.1000000000 0.1000000000 0.1000000000 0.1000000000 0.1000000000 0.1000000000 0.1000000000 0.1000000000 0.1000000000 0.1000000000 0.1000000000 0.1000000000 0.1000000000 0.1000000000 0.1000000000 0.1000000000 0.1000000000 0.1000000000 0.1000000000 0.1000000000 0.1000000000 0.1000000000 0.1000000000 0.1000000000 0.1000000000 0.1000000000 0.1000000000 0.1000000000 0.1000000000 0.1000000000 0.1000000000 0.1000000000 0.1000000000 0.1000000000 0.1000000000 0.1000000000 0.1000000000 0.1000000000 0.1000000000 0.1000000000 0.1000000000 0.1000000000 0.1000000000 0.1000000000 0.1000000000 0.1000000000 0.1000000000 0.1000000000 0.1000000000 0.1000000000 0.1000000000 0.1000000000 0.1000000000 0.1000000000 0.1000000000 0.1000000000 0.1000000000 0.1000000000 0.1000000000 0.1000000000 0.1000000000 0.1000000000 0.1000000000 0.1000000000 0.1000000000 0.1000000000 0.1000000000 0.1000000000 0.1000000000 0.1000000000 0.1000000000 0.1000000000 0.1000000000 0.1000000000 0.1000000000 0.1000000000 0.1000000000 0.1000000000 0.1000000000 0.1000000000 0.1000000000 0.1000000000 0.1000000000 0.1000000000 0.1000000000 0.1000000000 0.1000000000 0.1000000000 0.1000000000 0.1000000000 0.1000000000 0.1000000000 0.1000000000 0.1000000000 0.1000000000 0.1000000000 0.1000000000 0.1000000000 0.1000000000 0.1000000000 0.1000000000 0.1000000000 0.1000000000 0.1000000000 0.1000000000 0.1000000000 0.1000000000 0.1000000000 0.1000000000 0.1000000000 0.1000000000 0.1000000000 0.1000000000 0.1000000000 0.1000000000 0.1000000000 0.1000000000 0.1000000000 0.1000000000 0.1000000000 0.1000000000 0.1000000000 0.1000000000 0.1000000000 0.1000000000 0.1000000000 0.1000000000 0.1000000000 0.1000000000 0.1000000000 0.1000000000 0.1000000000 0.1000000000 0.1000000000 0.1000000000 0.1000000000 0.1000000000 0.1000000000 0.1000000000 0.1000000000 0.1000000000 0.1000000000 0.1000000000 0.1000000000 0.1000000000 0.1000000000 0.1000000000 0.1000000000 0.1000000000 0.1000000000 0.1000000000 0.1000000000 0.1000000000 0.1000000000 0.1000000000 0.1000000000 0.1000000000 0.1000000000 0.1000000000 0.1000000000 0.1000000000 0.1000000000 0.1000000000 0.1000000000 0.1000000000 0.1000000000 0.1000000000 0.1000000000 0.1000000000 0.1000000000 0.1000000000 0.1000000000 0.1000000000 0.1000000000 0.1000000000 0.1000000000 0.1000000000 0.1000000000 0.1000000000 0.1000000000 0.1000000000 0.1000000000 0.1000000000 0.1000000000 0.1000000000 0.1000000000 0.1000000000 0.1000000000 0.1000000000 0.1000000000 0.1000000000 0.1000000000 0.1000000000 0.1000000000 0.1000000000 0.1000000000 0.1000000000 0.1000000000 0.1000000000 0.1000000000 0.1000000000 0.1000000000 0.1000000000 0.1000000000 0.1000000000 0.1000000000 0.1000000000 0.1000000000 0.1000000000 0.1000000000 0.1000000000 0.1000000000 0.1000000000 0.1000000000 0.1000000000 0.1000000000 0.1000000000 0.1000000000 0.1000000000 0.1000000000 0.1000000000 0.1000000000 0.1000000000 0.1000000000 0.1000000000 0.1000000000 0.1000000000 0.1000000000 0.1000000000 0.1000000000 0.1000000000 0.1000000000 0.1000000000 0.1000000000 0.1000000000 0.1000000000 0.1000000000 0.1000000000 0.1000000000 0.1000000000 0.1000000000 0.1000000000 0.1000000000 0.1000000000 0.1000000000 0.1000000000 0.1000000000 0.1000000000 0.1000000000 0.1000000000 0.1000000000 0.1000000000 0.1000000000 0.1000000000 0.1000000000 0.1000000000 0.1000000000 0.1000000000 0.1000000000 0.1000000000 0.1000000000 0.1000000000 0.1000000000 0.1000000000 0.1000000000 0.1000000000 0.1000000000 0.1000000000 0.1000000000 0.1000000000 0.1000000000 0.1000000000 0.1000000000 0.1000000000 0.1000000000 0.1000000000 0.1000000000 0.1000000000 0.1000000000 0.1000000000 0.1000000000 0.1000000000 0.1000000000 0.1000000000 0.1000000000 0.1000000000 0.1000000000 0.1000000000 0.1000000000 0.1000000000 0.1000000000 0.1000000000 0.1000000000 0.1000000000 0.1000000000 0.1000000000 0.1000000000 0.1000000000 0.10000000