<?xml version="1.0"?>
<VTKFile type="UnstructuredGrid" version="0.1" byte_order="LittleEndian">
  <UnstructuredGrid>
    <FieldData>
      <DataArray type="Float32" Name="TIME"  NumberOfTuples="1" format="ascii"> 0.6500000000 </DataArray>
      <DataArray type="Int32"   Name="STEP"  NumberOfTuples="1" format="ascii"> 162500 </DataArray>
    </FieldData>
    <Piece NumberOfPoints="11600" NumberOfCells="11600">
      <Points>
        <DataArray type="Float32" NumberOfComponents="3" format="ascii">
 -0.1017609660 -0.2382194958 0.0000000000 0.0982334957 -0.2367309070 0.0000000000 0.2982279604 -0.2352423153 0.0000000000 0.4982224369 -0.2337537151 0.0000000000 0.6982168974 -0.2322651139 0.0000000000 0.8982113538 -0.2307765151 0.0000000000 1.0982058076 -0.2292879157 0.0000000000 1.2982002601 -0.2277993136 0.0000000000 1.4981947103 -0.2263107111 0.0000000000 1.6981891690 -0.2248221015 0.0000000000 1.8981836369 -0.2233334784 0.0000000000 2.0981781078 -0.2218448460 0.0000000000 2.2981725762 -0.2203562038 0.0000000000 2.4981670504 -0.2188675448 0.0000000000 2.6981615061 -0.2173788795 0.0000000000 2.8981559558 -0.2158902129 0.0000000000 3.0981504004 -0.2144015480 0.0000000000 3.2981448423 -0.2129128844 0.0000000000 3.4981392612 -0.2114242200 0.0000000000 3.6981336929 -0.2099355542 0.0000000000 3.8981281177 -0.2084468873 0.0000000000 4.0981225370 -0.2069582186 0.0000000000 4.2981169514 -0.2054695447 0.0000000000 4.4981113143 -0.2039808774 0.0000000000 4.6981057102 -0.2024922105 0.0000000000 4.8981000955 -0.2010035482 0.0000000000 5.0980944739 -0.1995148948 0.0000000000 5.2980888496 -0.1980262470 0.0000000000 5.4980831537 -0.1965376162 0.0000000000 5.6980775211 -0.1950489974 0.0000000000 5.8980718815 -0.1935603863 0.0000000000 6.0980662391 -0.1920717889 0.0000000000 6.2980605989 -0.1905832004 0.0000000000 6.4980548815 -0.1890946289 0.0000000000 6.6980492373 -0.1876060754 0.0000000000 6.8980435867 -0.1861175336 0.0000000000 7.0980379354 -0.1846290051 0.0000000000 7.2980322883 -0.1831404835 0.0000000000 7.4980265579 -0.1816519750 0.0000000000 7.6980209051 -0.1801634794 0.0000000000 7.8980152429 -0.1786749921 0.0000000000 8.0980095757 -0.1771865178 0.0000000000 8.2980039091 -0.1756980520 0.0000000000 8.4979981435 -0.1742096090 0.0000000000 8.6979924712 -0.1727211914 0.0000000000 8.8979867927 -0.1712327868 0.0000000000 9.0979811152 -0.1697444024 0.0000000000 9.2979754452 -0.1682560338 0.0000000000 9.4979696889 -0.1667677051 0.0000000000 9.6979640380 -0.1652794029 0.0000000000 9.8979583947 -0.1637910993 0.0000000000 10.0979527612 -0.1623027950 0.0000000000 10.2979471380 -0.1608144883 0.0000000000 10.4979414621 -0.1593261843 0.0000000000 10.6979358479 -0.1578378849 -0.0000000000 10.8979302338 -0.1563495828 -0.0000000000 11.0979246224 -0.1548612784 -0.0000000000 11.2979190158 -0.1533729720 -0.0000000000 11.4979133601 -0.1518846732 -0.0000000000 11.6979077565 -0.1503963830 -0.0000000000 11.8979021512 -0.1489080984 -0.0000000000 12.0978965468 -0.1474198200 -0.0000000000 12.2978909441 -0.1459315431 -0.0000000000 12.4978852859 -0.1444432844 -0.0000000000 12.6978796842 -0.1429550423 -0.0000000000 12.8978740289 -0.1414668270 -0.0000000000 13.0978684308 -0.1399786382 -0.0000000000 13.2978628396 -0.1384904742 -0.0000000000 13.4978572237 -0.1370023454 -0.0000000000 13.6978516621 -0.1355142411 -0.0000000000 13.8978461041 -0.1340261498 -0.0000000000 14.1029886939 -0.1322042845 0.0000000000 14.3029886730 -0.1322943002 0.0000000000 14.5029886520 -0.1323843157 0.0000000000 14.7029886336 -0.1324743307 0.0000000000 14.9029886126 -0.1325643466 0.0000000000 15.1029885927 -0.1326543619 0.0000000000 15.3029885726 -0.1327443780 0.0000000000 15.5029885517 -0.1328343938 0.0000000000 15.7029885327 -0.1329244099 0.0000000000 15.9029885120 -0.1330144261 0.0000000000 16.1029884924 -0.1331044423 0.0000000000 16.3029884726 -0.1331944581 0.0000000000 16.5237933974 -0.1011325279 0.0000000022 16.7237885337 -0.0997378245 0.0000000020 16.9237836649 -0.0983431387 0.0000000019 17.1237788084 -0.0969484553 0.0000000017 17.3237739571 -0.0955537726 0.0000000016 17.5237691101 -0.0941590876 0.0000000014 17.7237642664 -0.0927643964 0.0000000012 17.9237595177 -0.0913696751 0.0000000010 18.1237546814 -0.0899749220 0.0000000008 18.3237498492 -0.0885801598 0.0000000006 18.5237450151 -0.0871853858 0.0000000003 18.7237401761 -0.0857906065 0.0000000000 18.9237353988 -0.0843958037 -0.0000000003 19.1237305489 -0.0830009910 -0.0000000006 19.3237256940 -0.0816061818 -0.0000000010 19.5237208361 -0.0802113754 -0.0000000014 19.7237159776 -0.0788165712 -0.0000000017 -0.0030528899 -0.0642749212 0.0000000000 0.1969415711 -0.0627863299 0.0000000000 0.3969360367 -0.0612977343 0.0000000000 0.5969305013 -0.0598091319 0.0000000000 0.7969249607 -0.0583205313 0.0000000000 0.9969194155 -0.0568319309 0.0000000000 1.1969138670 -0.0553433286 0.0000000000 1.3969083184 -0.0538547248 0.0000000000 1.5969027716 -0.0523661192 0.0000000000 1.7968972272 -0.0508775046 0.0000000000 1.9968916899 -0.0493888769 0.0000000000 2.1968861532 -0.0479002378 0.0000000000 2.3968806148 -0.0464115874 0.0000000000 2.5968750712 -0.0449229228 0.0000000000 2.7968695223 -0.0434342564 0.0000000000 2.9968639683 -0.0419455900 0.0000000000 3.1968584084 -0.0404569254 0.0000000000 3.3968528412 -0.0389682596 0.0000000000 3.5968472689 -0.0374795933 0.0000000000 3.7968416935 -0.0359909263 0.0000000000 3.9968361125 -0.0345022571 0.0000000000 4.1968305230 -0.0330135845 0.0000000000 4.3968249203 -0.0315249095 0.0000000000 4.5968193100 -0.0300362413 0.0000000000 4.7968136987 -0.0285475764 0.0000000000 4.9968080820 -0.0270589177 0.0000000000 5.1968024574 -0.0255702660 0.0000000000 5.3967968188 -0.0240816213 0.0000000000 5.5967911752 -0.0225929977 0.0000000000 5.7967855377 -0.0211043837 0.0000000000 5.9967799008 -0.0196157794 0.0000000000 6.1967742595 -0.0181271856 0.0000000000 6.3967686054 -0.0166386008 0.0000000000 6.5967629494 -0.0151500407 0.0000000000 6.7967573024 -0.0136614938 0.0000000000 6.9967516562 -0.0121729585 0.0000000000 7.1967460047 -0.0106844322 0.0000000000 7.3967403391 -0.0091959118 0.0000000000 7.5967346709 -0.0077074122 0.0000000000 7.7967290112 -0.0062189215 0.0000000000 7.9967233506 -0.0047304397 0.0000000000 8.1967176823 -0.0032419684 0.0000000000 8.3967119966 -0.0017535091 0.0000000000 8.5967063092 -0.0002650829 0.0000000000 8.7967006358 0.0012233274 0.0000000000 8.9966949671 0.0027117212 0.0000000000 9.1966892978 0.0042000971 0.0000000000 9.3966836208 0.0056884499 0.0000000000 9.5966779497 0.0071767594 0.0000000000 9.7966722974 0.0086650600 0.0000000000 9.9966666558 0.0101533618 0.0000000000 10.1966610202 0.0116416665 0.0000000000 10.3966553821 0.0131299727 0.0000000000 10.5966497494 0.0146182705 -0.0000000000 10.7966441287 0.0161065700 -0.0000000000 10.9966385130 0.0175948719 -0.0000000000 11.1966328987 0.0190831778 -0.0000000000 11.3966272806 0.0205714821 -0.0000000000 11.5966216654 0.0220597739 -0.0000000000 11.7966160603 0.0235480604 -0.0000000000 11.9966104587 0.0250363419 -0.0000000000 12.1966048553 0.0265246211 -0.0000000000 12.3965992457 0.0280128948 -0.0000000000 12.5965936349 0.0295011428 -0.0000000000 12.7965880269 0.0309893763 -0.0000000000 12.9965824271 0.0324775732 -0.0000000000 13.1965768395 0.0339657479 -0.0000000000 13.3965712609 0.0354538972 -0.0000000000 13.5965656934 0.0369420074 -0.0000000000 13.7965601435 0.0384301019 -0.0000000000 14.0030666575 0.0410457833 0.0000000000 14.2030666385 0.0409557696 0.0000000000 14.4030666185 0.0408657543 0.0000000000 14.6030665986 0.0407757385 0.0000000000 14.8030665785 0.0406857232 0.0000000000 15.0030665585 0.0405957074 0.0000000000 15.2030665383 0.0405056916 0.0000000000 15.4030665181 0.0404156759 0.0000000000 15.6030664984 0.0403256594 0.0000000000 15.8030664782 0.0402356438 0.0000000000 16.0030664585 0.0401456279 0.0000000000 16.2030664360 0.0400556095 0.0000000000 16.4225879774 0.0713709879 0.0000000021 16.6225831151 0.0727656919 0.0000000020 16.8225782582 0.0741603886 0.0000000018 17.0225734015 0.0755550714 0.0000000017 17.2225685478 0.0769497540 0.0000000015 17.4225636991 0.0783444368 0.0000000013 17.6225588559 0.0797391250 0.0000000011 17.8225540285 0.0811338260 0.0000000009 18.0225492040 0.0825285672 0.0000000007 18.2225443692 0.0839233224 0.0000000005 18.4225395315 0.0853180907 0.0000000002 18.6225346943 0.0867128678 -0.0000000001 18.8225298643 0.0881076538 -0.0000000004 19.0225250307 0.0895024647 -0.0000000007 19.2225201812 0.0908972760 -0.0000000011 19.4225153257 0.0922920830 -0.0000000014 19.6225104707 0.0936868863 -0.0000000018 19.8225056156 0.0950816910 -0.0000000022 -0.1043392787 0.1081810641 0.0000000000 0.0956551826 0.1096696569 0.0000000000 0.2956496446 0.1111582527 0.0000000000 0.4956441055 0.1126468539 0.0000000000 0.6956385669 0.1141354554 0.0000000000 0.8956330239 0.1156240563 0.0000000000 1.0956274776 0.1171126593 0.0000000000 1.2956219296 0.1186012635 0.0000000000 1.4956163771 0.1200898713 0.0000000000 1.6956108315 0.1215784822 0.0000000000 1.8956052875 0.1230671031 0.0000000000 2.0955997448 0.1245557372 0.0000000000 2.2955942022 0.1260443814 0.0000000000 2.4955886537 0.1275330444 0.0000000000 2.6955831049 0.1290217080 0.0000000000 2.8955775518 0.1305103745 0.0000000000 3.0955719944 0.1319990401 0.0000000000 3.2955664336 0.1334877051 0.0000000000 3.4955608539 0.1349763732 0.0000000000 3.6955552830 0.1364650409 0.0000000000 3.8955497051 0.1379537108 0.0000000000 4.0955441213 0.1394423838 0.0000000000 4.2955385337 0.1409310591 0.0000000000 4.4955329110 0.1424197308 0.0000000000 4.6955273110 0.1439083990 0.0000000000 4.8955217030 0.1453970621 0.0000000000 5.0955160899 0.1468857185 0.0000000000 5.2955104761 0.1483743680 0.0000000000 5.4955048164 0.1498629990 0.0000000000 5.6954991954 0.1513516202 0.0000000000 5.8954935683 0.1528402302 0.0000000000 6.0954879397 0.1543288297 0.0000000000 6.2954823139 0.1558174201 0.0000000000 6.4954766398 0.1573059894 0.0000000000 6.6954710102 0.1587945434 0.0000000000 6.8954653751 0.1602830855 0.0000000000 7.0
[...]
      <PointData Scalars="radius">
        <DataArray type="Float32" Name="radius" format="ascii">
 0.1000000000 0.1000000000 0.1000000000 0.1000000000 0.1000000000 0.1000000000 0.1000000000 0.1000000000 0.1000000000 0.1000000000 0.1000000000 0.1000000000 0.1000000000 0.1000000000 0.1000000000 0.1000000000 0.1000000000 0.1000000000 0.1000000000 0.1000000000 0.1000000000 0.1000000000 0.1000000000 0.1000000000 0.1000000000 0.1000000000 0.1000000000 0.1000000000 0.1000000000 0.1000000000 0.1000000000 0.1000000000 0.1000000000 0.1000000000 0.1000000000 0.1000000000 0.1000000000 0.1000000000 0.1000000000 0.1000000000 0.1000000000 0.1000000000 0.1000000000 0.1000000000 0.1000000000 0.1000000000 0.1000000000 0.1000000000 0.1000000000 0.1000000000 0.1000000000 0.1000000000 0.1000000000 0.1000000000 0.1000000000 0.1000000000 0.1000000000 0.1000000000 0.1000000000 0.1000000000 0.1000000000 0.1000000000 0.1000000000 0.1000000000 0.1000000000 0.1000000000 0.1000000000 0.1000000000 0.1000000000 0.1000000000 0.1000000000 0.1000000000 0.1000000000 0.1000000000 0.1000000000 0.1000000000 0.1000000000 0.1000000000 0.1000000000 0.1000000000 0.1000000000 0.1000000000 0.1000000000 0.1000000000 0.1000000000 0.1000000000 0.1000000000 0.1000000000 0.1000000000 0.1000000000 0.1000000000 0.1000000000 0.1000000000 0.1000000000 0.1000000000 0.1000000000 0.1000000000 0.1000000000 0.1000000000 0.1000000000 0.1000000000 0.1000000000 0.1000000000 0.1000000000 0.1000000000 0.1000000000 0.1000000000 0.1000000000 0.1000000000 0.1000000000 0.1000000000 0.1000000000 0.1000000000 0.1000000000 0.1000000000 0.1000000000 0.1000000000 0.1000000000 0.1000000000 0.1000000000 0.1000000000 0.1000000000 0.1000000000 0.1000000000 0.1000000000 0.1000000000 0.1000000000 0.1000000000 0.1000000000 0.1000000000 0.1000000000 0.1000000000 0.1000000000 0.1000000000 0.1000000000 0.1000000000 0.1000000000 0.1000000000 0.1000000000 0.1000000000 0.1000000000 0.1000000000 0.1000000000 0.1000000000 0.1000000000 0.1000000000 0.1000000000 0.1000000000 0.1000000000 0.1000000000 0.1000000000 0.1000000000 0.1000000000 0.1000000000 0.1000000000 0.1000000000 0.1000000000 0.1000000000 0.1000000000 0.1000000000 0.1000000000 0.1000000000 0.1000000000 0.1000000000 0.1000000000 0.1000000000 0.1000000000 0.1000000000 0.1000000000 0.1000000000 0.1000000000 0.1000000000 0.1000000000 0.1000000000 0.1000000000 0.1000000000 0.1000000000 0.1000000000 0.1000000000 0.1000000000 0.1000000000 0.1000000000 0.1000000000 0.1000000000 0.1000000000 0.1000000000 0.1000000000 0.1000000000 0.1000000000 0.1000000000 0.1000000000 0.1000000000 0.1000000000 0.1000000000 0.1000000000 0.1000000000 0.1000000000 0.1000000000 0.1000000000 0.1000000000 0.1000000000 0.1000000000 0.1000000000 0.1000000000 0.1000000000 0.1000000000 0.1000000000 0.1000000000 0.1000000000 0.1000000000 0.1000000000 0.1000000000 0.1000000000 0.1000000000 0.1000000000 0.1000000000 0.1000000000 0.1000000000 0.1000000000 0.1000000000 0.1000000000 0.1000000000 0.1000000000 0.1000000000 0.1000000000 0.1000000000 0.1000000000 0.1000000000 0.1000000000 0.1000000000 0.1000000000 0.1000000000 0.1000000000 0.1000000000 0.1000000000 0.1000000000 0.1000000000 0.1000000000 0.1000000000 0.1000000000 0.1000000000 0.1000000000 0.1000000000 0.1000000000 0.1000000000 0.1000000000 0.1000000000 0.1000000000 0.1000000000 0.1000000000 0.1000000000 0.1000000000 0.1000000000 0.1000000000 0.1000000000 0.1000000000 0.1000000000 0.1000000000 0.1000000000 0.1000000000 0.1000000000 0.1000000000 0.1000000000 0.1000000000 0.1000000000 0.1000000000 0.1000000000 0.1000000000 0.1000000000 0.1000000000 0.1000000000 0.1000000000 0.1000000000 0.1000000000 0.1000000000 0.1000000000 0.1000000000 0.1000000000 0.1000000000 0.1000000000 0.1000000000 0.1000000000 0.1000000000 0.1000000000 0.1000000000 0.1000000000 0.1000000000 0.1000000000 0.1000000000 0.1000000000 0.1000000000 0.1000000000 0.1000000000 0.1000000000 0.1000000000 0.1000000000 0.1000000000 0.1000000000 0.1000000000 0.1000000000 0.1000000000 0.1000000000 0.1000000000 0.1000000000 0.1000000000 0.1000000000 0.1000000000 0.1000000000 0.1000000000 0.1000000000 0.1000000000 0.1000000000 0.1000000000 0.1000000000 0.1000000000 0.1000000000 0.1000000000 0.1000000000 0.1000000000 0.1000000000 0.1000000000 0.1000000000 0.1000000000 0.1000000000 0.1000000000 0.1000000000 0.1000000000 0.1000000000 0.1000000000 0.1000000000 0.1000000000 0.1000000000 0.1000000000 0.1000000000 0.1000000000 0.1000000000 0.1000000000 0.1000000000 0.1000000000 0.1000000000 0.1000000000 0.1000000000 0.1000000000 0.1000000000 0.1000000000 0.1000000000 0.1000000000 0.1000000000 0.1000000000 0.1000000000 0.1000000000 0.1000000000 0.1000000000 0.1000000000 0.1000000000 0.1000000000 0.1000000000 0.1000000000 0.1000000000 0.1000000000 0.1000000000 0.1000000000 0.1000000000 0.1000000000 0.1000000000 0.1000000000 0.1000000000 0.1000000000 0.1000000000 0.1000000000 0.1000000000 0.1000000000 0.1000000000 0.1000000000 0.1000000000 0.1000000000 0.1000000000 0.1000000000 0.1000000000 0.1000000000 0.1000000000 0.1000000000 0.1000000000 0.1000000000 0.1000000000 0.1000000000 0.1000000000 0.1000000000 0.1000000000 0.1000000000 0.1000000000 0.1000000000 0.1000000000 0.1000000000 0.1000000000 0.1000000000 0.1000000000 0.1000000000 0.1000000000 0.1000000000 0.1000000000 0.1000000000 0.1000000000 0.1000000000 0.1000000000 0.1000000000 0.1000000000 0.1000000000 0.1000000000 0.1000000000 0.1000000000 0.1000000000 0.1000000000 0.1000000000 0.1000000000 0.1000000000 0.1000000000 0.1000000000 0.1000000000 0.1000000000 0.1000000000 0.1000000000 0.1000000000 0.1000000000 0.1000000000 0.1000000000 0.1000000000 0.1000000000 0.1000000000 0.1000000000 0.1000000000 0.1000000000 0.1000000000 0.1000000000 0.1000000000 0.1000000000 0.1000000000 0.1000000000 0.1000000000 0.1000000000 0.1000000000 0.1000000000 0.1000000000 0.1000000000 0.1000000000 0.1000000000 0.1000000000 0.1000000000 0.1000000000 0.1000000000 0.1000000000 0.1000000000 0.1000000000 0.1000000000 0.1000000000 0.1000000000 0.1000000000 0.1000000000 0.1000000000 0.1000000000 0.1000000000 0.1000000000 0.1000000000 0.1000000000 0.1000000000 0.1000000000 0.1000000000 0.1000000000 0.1000000000 0.1000000000 0.1000000000 0.1000000000 0.1000000000 0.1000000000 0.1000000000 0.1000000000 0.1000000000 0.1000000000 0.1000000000 0.1000000000 0.1000000000 0.1000000000 0.1000000000 0.1000000000 0.1000000000 0.1000000000 0.1000000000 0.1000000000 0.1000000000 0.1000000000 0.1000000000 0.1000000000 0.1000000000 0.1000000000 0.1000000000 0.1000000000 0.1000000000 0.1000000000 0.1000000000 0.1000000000 0.1000000000 0.1000000000 0.1000000000 0.1000000000 0.1000000000 0.1000000000 0.1000000000 0.1000000000 0.1000000000 0.1000000000 0.1000000000 0.1000000000 0.1000000000 0.1000000000 0.1000000000 0.1000000000 0.1000000000 0.1000000000 0.1000000000 0.1000000000 0.1000000000 0.1000000000 0.1000000000 0.1000000000 0.1000000000 0.1000000000 0.1000000000 0.1000000000 0.1000000000 0.1000000000 0.1000000000 0.1000000000 0.1000000000 0.1000000000 0.1000000000 0.1000000000 0.1000000000 0.1000000000 0.1000000000 0.1000000000 0.1000000000 0.1000000000 0.1000000000 0.1000000000 0.1000000000 0.1000000000 0.1000000000 0.1000000000 0.1000000000 0.1000000000 0.1000000000 0.1000000000 0.1000000000 0.1000000000 0.1000000000 0.1000000000 0.1000000000 0.1000000000 0.1000000000 0.1000000000 0.1000000000 0.1000000000 0.1000000000 0.1000000000 0.1000000000 0.1000000000 0.1000000000 0.1000000000 0.1000000000 0.1000000000 0.1000000000 0.1000000000 0.1000000000 0.1000000000 0.1000000000 0.1000000000 0.1000000000 0.1000000000 0.1000000000 0.1000000000 0.1000000000 0.1000000000 0.1000000000 0.1000000000 0.1000000000 0.1000000000 0.1000000000 0.1000000000 0.1000000000 0.1000000000 0.1000000000 0.1000000000 0.1000000000 0.1000000000 0.1000000000 0.1000000000 0.1000000000 0.1000000000 0.1000000000 0.1000000000 0.1000000000 0.1000000000 0.1000000000 0.1000000000 0.1000000000 0.1000000000 0.1000000000 0.1000000000 0.1000000000 0.1000000000 0.1000000000 0.1000000000 0.1000000000 0.1000000000 0.1000000000 0.1000000000 0.1000000000 0.1000000000 0.1000000000 0.1000000000 0.1000000000 0.1000000000 0.1000000000 0.1000000000 0.1000000000 0.1000000000 0.1000000000 0.1000000000 0.1000000000 0.1000000000 0.1000000000 0.1000000000 0.1000000000 0.1000000000 0.1000000000 0.1000000000 0.1000000000 0.1000000000 0.1000000000 0.1000000000 0.1000000000 0.1000000000 0.1000000000 0.1000000000 0.1000000000 0.1000000000 0.1000000000 0.1000000000 0.1000000000 0.1000000000 0.1000000000 0.1000000000 0.1000000000 0.1000000000 0.1000000000 0.1000000000 0.1000000000 0.1000000000 0.1000000000 0.1000000000 0.1000000000 0.1000000000 0.1000000000 0.1000000000 0.1000000000 0.1000000000 0.1000000000 0.1000000000 0.1000000000 0.1000000000 0.1000000000 0.1000000000 0.1000000000 0.1000000000 0.1000000000 0.1000000000 0.1000000000 0.1000000000 0.1000000000 0.1000000000 0.1000000000 0.1000000000 0.1000000000 0.1000000000 0.1000000000 0.1000000000 0.1000000000 0.1000000000 0.1000000000 0.1000000000 0.1000000000 0.1000000000 0.1000000000 0.1000000000 0.1000000000 0.1000000000 0.1000000000 0.1000000000 0.1000000000 0.1000000000 0.1000000000 0.1000000000 0.1000000000 0.1000000000 0.1000000000 0.1000000000 0.1000000000 0.1000000000 0.1000000000 0.1000000000 0.1000000000 0.1000000000 0.1000000000 0.1000000000 0.1000000000 0.1000000000 0.1000000000 0.1000000000 0.1000000000 0.1000000000 0.1000000000 0.1000000000 0.1000000000 0.1000000000 0.1000000000 0.1000000000 0.1000000000 0.1000000000 0.1000000000 0.1000000000 0.1000000000 0.1000000000 0.1000000000 0.1000000000 0.1000000000 0.1000000000 0.1000000000 0.1000000000 0.1000000000 0.1000000000 0.1000000000 0.1000000000 0.1000000000 0.1000000000 0.1000000000 0.1000000000 0.1000000000 0.1000000000 0.1000000000 0.1000000000 0.1000000000 0.1000000000 0.1000000000 0.1000000000 0.1000000000 0.1000000000 0.1000000000 0.1000000000 0.1000000000 0.1000000000 0.1000000000 0.1000000000 0.1000000000 0.1000000000 0.1000000000 0.1000000000 0.1000000000 0.1000000000 0.1000000000 0.1000000000 0.1000000000 0.1000000000 0.1000000000 0.1000000000 0.1000000000 0.1000000000 0.1000000000 0.1000000000 0.1000000000 0.1000000000 0.1000000000 0.1000000000 0.1000000000 0.1000000000 0.1000000000 0.1000000000 0.1000000000 0.1000000000 0.1000000000 0.1000000000 0.1000000000 0.1000000000 0.1000000000 0.1000000000 0.1000000000 0.1000000000 0.1000000000 0.1000000000 0.1000000000 0.1000000000 0.1000000000 0.1000000000 0.1000000000 0.1000000000 0.1000000000 0.1000000000 0.1000000000 0.1000000000 0.1000000000 0.1000000000 0.1000000000 0.1000000000 0.1000000000 0.1000000000 0.1000000000 0.1000000000 0.1000000000 0.1000000000 0.1000000000 0.1000000000 0.1000000000 0.1000000000 0.1000000000 0.1000000000 0.1000000000 0.1000000000 0.1000000000 0.1000000000 0.1000000000 0.1000000000 0.1000000000 0.1000000000 0.1000000000 0.1000000000 0.1000000000 0.1000000000 0.1000000000 0.1000000000 0.1000000000 0.1000000000 0.1000000000 0.1000000000 0.1000000000 0.1000000000 0.1000000000 0.1000000000 0.1000000000 0.1000000000 0.1000000000 0.1000000000 0.1000000000 0.1000000000 0.1000000000 0.1000000000 0.1000000000 0.1000000000 0.1000000000 0.1000000000 0.1000000000 0.1000000000 0.1000000000 0.1000000000 0.1000000000 0.1000000000 0.1000000000 0.1000000000 0.1000000000 0.1000000000 0.1000000000 0.1000000000 0.1000000000 0.1000000000 0.1000000000 0.1000000000 0.1000000000 0.1000000000 0.1000000000 0.1000000000 0.1000000000 0.1000000000 0.1000000000 0.1000000000 0.1000000000 0.1000000000 0.1000000000 0.1000000000 0.1000000000 0.1000000000 0.1000000000 0.1000000000 0.1000000000 0.1000000000 0.1000000000 0.1000000000 0.1000000000 0.1000000000 0.1000000000 0.1000000000 0.1000000000 0.1000000000 0.1000000000 0.1000000000 0.1000000000 0.1000000000 0.1000000000 0.1000000000 0.1000000000 0.1000000000 0.1000000000 0.1000000000 0.1000000000 0.1000000000 0.1000000000 0.1000000000 0.1000000000 0.1000000000 0.1000000000 0.1000000000 0.1000000000 0.1000000000 0.1000000000 0.1000000000 0.1000000000 0.1000000000 0.1000000000 0.1000000000 0.1000000000 0.1000000000 0.1000000000 0.1000000000 0.1000000000 0.1000000000 0.1000000000 0.1000000000 0.1000000000 0.1000000000 0.1000000000 0.1000000000 0.1000000000 0.1000000000 0.1000000000 0.1000000000 0.1000000000 0.1000000000 0.1000000000 0.1000000000 0.1000000000 0.1000000000 0.1000000000 0.1000000000 0.1000000000 0.1000000000 0.1000000000 0.1000000000 0.1000000000 0.1000000000 0.1000000000 0.1000000000 0.1000000000 0.1000000000 0.1000000000 0.1000000000 0.1000000000 0.1000000000 0.1000000000 0.1000000000 0.1000000000 0.1000000000 0.1000000000 0.1000000000 0.1000000000 0.1000000000 0.1000000000 0.1000000000 0.1000000000 0.1000000000 0.1000000000 0.1000000000 0.1000000000 0.1000000000 0.1000000000 0.1000000000 0.1000000000 0.1000000000 0.1000000000 0.1000000000 0.1000000000 0.1000000000 0.1000000000 0.1000000000 0.1000000000 0.1000000000 0.1000000000 0.1000000000 0.1000000000 0.1000000000 0.1000000000 0.1000000000 0.1000000000 0.1000000000 0.1000000000 0.1000000000 0.1000000000 0.1000000000 0.1000000000 0.1000000000 0.1000000000 0.1000000000 0.1000000000 0.1000000000 0.1000000000 0.1000000000 0.1000000000 0.1000000000 0.1000000000 0.1000000000 0.1000000000 0.1000000000 0.1000000000 0.1000000000 0.1000000000 0.1000000000 0.1000000000 0.1000000000 0.1000000000 0.1000000000 0.1000000000 0.1000000000 0.1000000000 0.1000000000 0.1000000000 0.1000000000 0.1000000000 0.1000000000 0.1000000000 0.1000000000 0.1000000000 0.1000000000 0.1000000000 0.1000000000 0.1000000000 0.1000000000 0.1000000000 0.1000000000 0.1000000000 0.1000000000 0.1000000000 0.1000000000 0.1000000000 0.1000000000 0.1000000000 0.1000000000 0.1000000000 0.1000000000 0.1000000000 0.1000000000 0.1000000000 0.1000000000 0.1000000000 0.1000000000 0.1000000000 0.1000000000 0.1000000000 0.1000000000 0.1000000000 0.1000000000 0.1000000000 0.1000000000 0.1000000000 0.1000000000 0.1000000000 0.1000000000 0.1000000000 0.1000000000 0.1000000000 0.1000000000 0.1000000000 0.1000000000 0.1000000000 0.1000000000 0.1000000000 0.1000000000 0.1000000000 0.1000000000 0.1000000000 0.1000000000 0.1000000000 0.1000000000 0.1000000000 0.1000000000 0.1000000000 0.1000000000 0.1000000000 0.1000000000 0.1000000000 0.1000000000 0.1000000000 0.1000000000 0.1000000000 0.1000000000 0.1000000000 0.1000000000 0.1000000000 0.1000000000 0.1000000000 0.1000000000 0.1000000000 0.1000000000 0.1000000000 0.1000000000 0.1000000000 0.1000000000 0.1000000000 0.1000000000 0.1000000000 0.1000000000 0.1000000000 0.1000000000 0.1000000000 0.1000000000 0.1000000000 0.1000000000 0.1000000000 0.1000000000 0.1000000000 0.1000000000 0.1000000000 0.1000000000 0.1000000000 0.1000000000 0.1000000000 0.1000000000 0.1000000000 0.1000000000 0.1000000000 0.1000000000 0.1000000000 0.1000000000 0.1000000000 0.1000000000 0.1000000000 0.1000000000 0.1000000000 0.1000000000 0.1000000000 0.1000000000 0.1000000000 0.1000000000 0.1000000000 0.1000000000 0.1000000000 0.1000000000 0.1000000000 0.1000000000 0.1000000000 0.1000000000 0.1000000000 0.1000000000 0.1000000000 0.1000000000 0.1000000000 0.1000000000 0.1000000000 0.1000000000 0.1000000000 0.1000000000 0.1000000000 0.1000000000 0.1000000000 0.1000000000 0.1000000000 0.1000000000 0.1000000000 0.1000000000 0.1000000000 0.1000000000 0.1000000000 0.1000000000 0.1000000000 0.1000000000 0.1000000000 0.1000000000 0.1000000000 0.1000000000 0.1000000000 0.1000000000 0.1000000000 0.1000000000 0.1000000000 0.1000000000 0.1000000000 0.1000000000 0.1000000000 0.1000000000 0.1000000000 0.1000000000 0.1000000000 0.1000000000 0.1000000000 0.1000000000 0.1000000000 0.1000000000 0.1000000000 0.1000000000 0.1000000000 0.1000000000 0.1000000000 0.1000000000 0.1000000000 0.1000000000 0.1000000000 0.1000000000 0.1000000000 0.1000000000 0.1000000000 0.1000000000 0.1000000000 0.1000000000 0.1000000000 0.1000000000 0.1000000000 0.1000000000 0.1000000000 0.1000000000 0.1000000000 0.1000000000 0.1000000000 0.1000000000 0.1000000000 0.1000000000 0.1000000000 0.1000000000 0.1000000000 0.1000000000 0.1000000000 0.1000000000 0.1000000000 0.1000000000 0.1000000000 0.1000000000 0.1000000000 0.1000000000 0.1000000000 0.1000000000 0.1000000000 0.1000000000 0.1000000000 0.1000000000 0.1000000000 0.1000000000 0.1000000000 0.1000000000 0.1000000000 0.1000000000 0.1000000000 0.1000000000 0.1000000000 0.1000000000 0.1000000000 0.1000000000 0.1000000000 0.1000000000 0.1000000000 0.1000000000 0.1000000000 0.1000000000 0.1000000000 0.1000000000 0.1000000000 0.1000000000 0.1000000000 0.1000000000 0.1000000000 0.1000000000 0.1000000000 0.1000000000 0.1000000000 0.1000000000 0.1000000000 0.1000000000 0.1000000000 0.1000000000 0.1000000000 0.1000000000 0.1000000000 0.1000000000 0.1000000000 0.1000000000 0.1000000000 0.1000000000 0.1000000000 0.1000000000 0.1000000000 0.1000000000 0.1000000000 0.1000000000 0.1000000000 0.1000000000 0.1000000000 0.1000000000 0.1000000000 0.1000000000 0.1000000000 0.1000000000 0.1000000000 0.1000000000 0.1000000000 0.1000000000 0.1000000000 0.1000000000 0.1000000000 0.1000000000 0.1000000000 0.1000000000 0.1000000000 0.1000000000 0.1000000000 0.1000000000 0.1000000000 0.1000000000 0.1000000000 0.1000000000 0.1000000000 0.1000000000 0.1000000000 0.1000000000 0.1000000000 0.1000000000 0.1000000000 0.1000000000 0.1000000000 0.1000000000 0.1000000000 0.1000000000 0.1000000000 0.1000000000 0.1000000000 0.1000000000 0.1000000000 0.1000000000 0.1000000000 0.1000000000 0.1000000000 0.1000000000 0.1000000000 0.1000000000 0.1000000000 0.1000000000 0.1000000000 0.1000000000 0.1000000000 0.1000000000 0.1000000000 0.1000000000 0.1000000000 0.1000000000 0.1000000000 0.1000000000 0.1000000000 0.1000000000 0.1000000000 0.1000000000 0.1000000000 0.1000000000 0.1000000000 0.1000000000 0.1000000000 0.1000000000 0.1000000000 0.1000000000 0.1000000000 0.1000000000 0.1000000000 0.1000000000 0.1000000000 0.1000000000 0.1000000000 0.1000000000 0.1000000000 0.1000000000 0.1000000000 0.1000000000 0.1000000000 0.1000000000 0.1000000000 0.1000000000 0.1000000000 0.1000000000 0.1000000000 0.1000000000 0.1000000000 0.1000000000 0.1000000000 0.1000000000 0.1000000000 0.1000000000 0.1000000000 0.1000000000 0.1000000000 0.1000000000 0.1000000000 0.1000000000 0.1000000000 0.1000000000 0.1000000000 0.1000000000 0.1000000000 0.1000000000 0.1000000000 0.1000000000 0.1000000000 0.1000000000 0.1000000000 0.1000000000 0.1000000000 0.1000000000 0.1000000000 0.1000000000 0.1000000000 0.1000000000 0.1000000000 0.1000000000 0.1000000000 0.1000000000 0.1000000000 0.1000000000 0.1000000000 0.1000000000 0.1000000000 0.1000000000 0.1000000000 0.1000000000 0.1000000000 0.1000000000 0.1000000000 0.1000000000 0.1000000000 0.1000000000 0.1000000000 0.1000000000 0.1000000000 0.1000000000 0.1000000000 0.1000000000 0.1000000000 0.1000000000 0.1000000000 0.1000000000 0.1000000000 0.1000000000 0.1000000000 0.1000000000 0.1000000000 0.1000000000 0.1000000000 0.1000000000 0.1000000000 0.1000000000 0.1000000000 0.1000000000 0.1000000000 0.1000000000 0.1000000000 0.1000000000 0.1000000000 0.1000000000 0.1000000000 0.1000000000 0.1000000000 0.1000000000 0.1000000000 0.1000000000 0.1000000000 0.1000000000 0.1000000000 0.1000000000 0.1000000000 0.1000000000 0.1000000000 0.1000000000 0.1000000000 0.1000000000 0.1000000000 0.1000000000 0.1000000000 0.1000000000 0.1000000000 0.1000000000 0.1000000000 0.1000000000 0.1000000000 0.1000000000 0.1000000000 0.1000000000 0.1000000000 0.1000000000 0.1000000000 0.1000000000 0.1000000000 0.1000000000 0.1000000000 0.1000000000 0.1000000000 0.1000000000 0.1000000000 0.1000000000 0.1000000000 0.1000000000 0.1000000000 0.1000000000 0.1000000000 0.1000000000 0.1000000000 0.1000000000 0.1000000000 0.1000000000 0.1000000000 0.1000000000 0.1000000000 0.1000000000 0.1000000000 0.1000000000 0.1000000000 0.1000000000 0.1000000000 0.1000000000 0.1000000000 0.1000000000 0.1000000000 0.1000000000 0.10000000