<?xml version="1.0"?>
<VTKFile type="UnstructuredGrid" version="0.1" byte_order="LittleEndian">
  <UnstructuredGrid>
    <FieldData>
      <DataArray type="Float32" Name="TIME"  NumberOfTuples="1" format="ascii"> 0.8000000000 </DataArray>
      <DataArray type="Int32"   Name="STEP"  NumberOfTuples="1" format="ascii"> 200000 </DataArray>
    </FieldData>
    <Piece NumberOfPoints="11600" NumberOfCells="11600">
      <Points>
        <DataArray type="Float32" NumberOfComponents="3" format="ascii">
 -0.1249545899 -0.2911921280 0.0000000000 0.0750376912 -0.2894351074 0.0000000000 0.2750299737 -0.2876780860 0.0000000000 0.4750222525 -0.2859210634 0.0000000000 0.6750145366 -0.2841640387 0.0000000000 0.8750068205 -0.2824070098 0.0000000000 1.0749991027 -0.2806499742 0.0000000000 1.2749913837 -0.2788929359 0.0000000000 1.4749836607 -0.2771358940 0.0000000000 1.6749759393 -0.2753788498 0.0000000000 1.8749682156 -0.2736218045 0.0000000000 2.0749604902 -0.2718647578 0.0000000000 2.2749527634 -0.2701077098 0.0000000000 2.4749450254 -0.2683506626 0.0000000000 2.6749372946 -0.2665936146 0.0000000000 2.8749295612 -0.2648365674 0.0000000000 3.0749218268 -0.2630795195 0.0000000000 3.2749140923 -0.2613224694 0.0000000000 3.4749063421 -0.2595654180 0.0000000000 3.6748986042 -0.2578083660 0.0000000000 3.8748908629 -0.2560513147 0.0000000000 4.0748831198 -0.2542942647 0.0000000000 4.2748753761 -0.2525372164 0.0000000000 4.4748676087 -0.2507801738 0.0000000000 4.6748598618 -0.2490231353 0.0000000000 4.8748521121 -0.2472660993 0.0000000000 5.0748443609 -0.2455090674 0.0000000000 5.2748366099 -0.2437520392 0.0000000000 5.4748288305 -0.2419950186 0.0000000000 5.6748210758 -0.2402380034 0.0000000000 5.8748133169 -0.2384809931 0.0000000000 6.0748055552 -0.2367239892 0.0000000000 6.2747977930 -0.2349669911 0.0000000000 6.4747899933 -0.2332100037 0.0000000000 6.6747822283 -0.2314530295 0.0000000000 6.8747744615 -0.2296960617 0.0000000000 7.0747666959 -0.2279391003 0.0000000000 7.2747589339 -0.2261821414 0.0000000000 7.4747511389 -0.2244251833 0.0000000000 7.6747433782 -0.2226682274 0.0000000000 7.8747356157 -0.2209112717 0.0000000000 8.0747278536 -0.2191543188 0.0000000000 8.2747200943 -0.2173973677 0.0000000000 8.4747123047 -0.2156404209 0.0000000000 8.6747045471 -0.2138834772 0.0000000000 8.8746967887 -0.2121265356 0.0000000000 9.0746890315 -0.2103695955 0.0000000000 9.2746812773 -0.2086126556 0.0000000000 9.4746734950 -0.2068557154 0.0000000000 9.6746657409 -0.2050987779 0.0000000000 9.8746579843 -0.2033418408 0.0000000000 10.0746502271 -0.2015849069 0.0000000000 10.2746424713 -0.1998279763 0.0000000000 10.4746346875 -0.1980710551 0.0000000000 10.6746269347 -0.1963141419 0.0000000000 10.8746191829 -0.1945572309 0.0000000000 11.0746114330 -0.1928003210 0.0000000000 11.2746036861 -0.1910434119 -0.0000000000 11.4745959181 -0.1892865078 -0.0000000000 11.6745881745 -0.1875296076 -0.0000000000 11.8745804307 -0.1857727085 -0.0000000000 12.0745726880 -0.1840158125 -0.0000000000 12.2745649483 -0.1822589207 -0.0000000000 12.4745571933 -0.1805020362 -0.0000000000 12.6745494593 -0.1787451583 -0.0000000000 12.8745417144 -0.1769882847 -0.0000000000 13.0745339849 -0.1752314142 -0.0000000000 13.2745262580 -0.1734745492 -0.0000000000 13.4745185263 -0.1717176894 -0.0000000000 13.6745108064 -0.1699608334 -0.0000000000 13.8745030843 -0.1682039794 -0.0000000000 14.0822539327 -0.1654043993 -0.0000000000 14.2822538617 -0.1655722792 -0.0000000000 14.4822537906 -0.1657401587 -0.0000000000 14.6822537223 -0.1659080376 -0.0000000000 14.8822536514 -0.1660759174 -0.0000000000 15.0822535816 -0.1662437963 -0.0000000000 15.2822535117 -0.1664116758 -0.0000000000 15.4822534410 -0.1665795550 -0.0000000000 15.6822533720 -0.1667474341 0.0000000000 15.8822533012 -0.1669153134 0.0000000000 16.0822532316 -0.1670831925 0.0000000000 16.2822531616 -0.1672510712 0.0000000000 16.5080656836 -0.1258559214 0.0000000033 16.7080579628 -0.1240988806 0.0000000030 16.9080502451 -0.1223418582 0.0000000027 17.1080425362 -0.1205848369 0.0000000024 17.3080348311 -0.1188278149 0.0000000021 17.5080271267 -0.1170707901 0.0000000018 17.7080194224 -0.1153137688 0.0000000015 17.9080117826 -0.1135567406 0.0000000012 18.1080040790 -0.1117997018 0.0000000010 18.3079963761 -0.1100426700 0.0000000007 18.5079886722 -0.1082856413 0.0000000005 18.7079809673 -0.1065286207 0.0000000002 18.9079733041 -0.1047716091 -0.0000000000 19.1079655991 -0.1030145824 -0.0000000003 19.3079578927 -0.1012575555 -0.0000000006 19.5079501834 -0.0995005268 -0.0000000009 19.7079424700 -0.0977434974 -0.0000000012 -0.0264800748 -0.1171152227 0.0000000000 0.1735122051 -0.1153582006 0.0000000000 0.3735044855 -0.1136011780 0.0000000000 0.5734967659 -0.1118441551 0.0000000000 0.7734890459 -0.1100871285 0.0000000000 0.9734813256 -0.1083300956 0.0000000000 1.1734736042 -0.1065730580 0.0000000000 1.3734658818 -0.1048160176 0.0000000000 1.5734581584 -0.1030589744 0.0000000000 1.7734504337 -0.1013019298 0.0000000000 1.9734427076 -0.0995448833 0.0000000000 2.1734349794 -0.0977878353 0.0000000000 2.3734272486 -0.0960307865 0.0000000000 2.5734195156 -0.0942737386 0.0000000000 2.7734117817 -0.0925166911 0.0000000000 2.9734040465 -0.0907596431 0.0000000000 3.1733963094 -0.0890025932 0.0000000000 3.3733885691 -0.0872455414 0.0000000000 3.5733808276 -0.0854884899 0.0000000000 3.7733730865 -0.0837314383 0.0000000000 3.9733653444 -0.0819743875 0.0000000000 4.1733576002 -0.0802173377 0.0000000000 4.3733498517 -0.0784602903 0.0000000000 4.5733421017 -0.0767032504 0.0000000000 4.7733343530 -0.0749462134 0.0000000000 4.9733266041 -0.0731891792 0.0000000000 5.1733188531 -0.0714321486 0.0000000000 5.3733110973 -0.0696751220 0.0000000000 5.5733033398 -0.0679181046 0.0000000000 5.7732955836 -0.0661610923 0.0000000000 5.9732878262 -0.0644040843 0.0000000000 6.1732800652 -0.0626470823 0.0000000000 6.3732722975 -0.0608900873 0.0000000000 6.5732645285 -0.0591331081 0.0000000000 6.7732567635 -0.0573761370 0.0000000000 6.9732489995 -0.0556191725 0.0000000000 7.1732412340 -0.0538622112 0.0000000000 7.3732334636 -0.0521052515 0.0000000000 7.5732256936 -0.0503482962 0.0000000000 7.7732179289 -0.0485913411 0.0000000000 7.9732101663 -0.0468343871 0.0000000000 8.1732024033 -0.0450774345 0.0000000000 8.3731946368 -0.0433204847 0.0000000000 8.5731868711 -0.0415635407 0.0000000000 8.7731791107 -0.0398065990 0.0000000000 8.9731713522 -0.0380496582 0.0000000000 9.1731635933 -0.0362927178 0.0000000000 9.3731558311 -0.0345357766 0.0000000000 9.5731480694 -0.0327788393 0.0000000000 9.7731403118 -0.0310219024 0.0000000000 9.9731325557 -0.0292649671 0.0000000000 10.1731247990 -0.0275080349 0.0000000000 10.3731170392 -0.0257511077 0.0000000000 10.5731092807 -0.0239941922 0.0000000000 10.7731015275 -0.0222372806 0.0000000000 10.9730937771 -0.0204803706 0.0000000000 11.1730860275 -0.0187234609 -0.0000000000 11.3730782767 -0.0169665534 -0.0000000000 11.5730705278 -0.0152096528 -0.0000000000 11.7730627835 -0.0134527536 -0.0000000000 11.9730550420 -0.0116958564 -0.0000000000 12.1730473016 -0.0099389620 -0.0000000000 12.3730395616 -0.0081820727 -0.0000000000 12.5730318230 -0.0064251935 -0.0000000000 12.7730240872 -0.0046683176 -0.0000000000 12.9730163552 -0.0029114473 -0.0000000000 13.1730086271 -0.0011545803 -0.0000000000 13.3730009025 0.0006022826 -0.0000000000 13.5729931806 0.0023591383 -0.0000000000 13.7729854621 0.0041159932 -0.0000000000 13.9823993535 0.0078845570 -0.0000000000 14.1823992844 0.0077166792 -0.0000000000 14.3823992144 0.0075487999 -0.0000000000 14.5823991443 0.0073809200 -0.0000000000 14.7823990743 0.0072130408 -0.0000000000 14.9823990043 0.0070451613 -0.0000000000 15.1823989340 0.0068772819 -0.0000000000 15.3823988638 0.0067094029 0.0000000000 15.5823987941 0.0065415232 0.0000000000 15.7823987239 0.0063736446 0.0000000000 15.9823986541 0.0062057656 0.0000000000 16.1823985813 0.0060378843 0.0000000000 16.4065478866 0.0464639526 0.0000000031 16.6065401702 0.0482209977 0.0000000029 16.8065324618 0.0499780292 0.0000000026 17.0065247562 0.0517350485 0.0000000023 17.2065170512 0.0534920685 0.0000000020 17.4065093491 0.0552490905 0.0000000017 17.6065016515 0.0570061132 0.0000000014 17.8064939672 0.0587631347 0.0000000011 18.0064862838 0.0605201713 0.0000000009 18.2064785889 0.0622772056 0.0000000006 18.4064708910 0.0640342352 0.0000000004 18.6064631940 0.0657912594 0.0000000001 18.8064555046 0.0675482749 -0.0000000001 19.0064478132 0.0693052963 -0.0000000004 19.2064401111 0.0710623226 -0.0000000007 19.4064324046 0.0728193510 -0.0000000010 19.6064246946 0.0745763806 -0.0000000013 19.8064169800 0.0763334114 -0.0000000016 -0.1279978450 0.0552046606 0.0000000000 0.0719944362 0.0569616856 0.0000000000 0.2719867172 0.0587187093 0.0000000000 0.4719789944 0.0604757326 0.0000000000 0.6719712738 0.0622327580 0.0000000000 0.8719635520 0.0639897881 0.0000000000 1.0719558296 0.0657468231 0.0000000000 1.2719481070 0.0675038618 0.0000000000 1.4719403796 0.0692609044 0.0000000000 1.6719326552 0.0710179481 0.0000000000 1.8719249291 0.0727749941 0.0000000000 2.0719172014 0.0745320416 0.0000000000 2.2719094733 0.0762890899 0.0000000000 2.4719017361 0.0780461390 0.0000000000 2.6718940043 0.0798031872 0.0000000000 2.8718862701 0.0815602357 0.0000000000 3.0718785344 0.0833172854 0.0000000000 3.2718707985 0.0850743367 0.0000000000 3.4718630508 0.0868313881 0.0000000000 3.6718553130 0.0885884400 0.0000000000 3.8718475733 0.0903454915 0.0000000000 4.0718398326 0.0921025421 0.0000000000 4.2718320920 0.0938595911 0.0000000000 4.4718243371 0.0956166338 0.0000000000 4.6718165942 0.0973736730 0.0000000000 4.8718088491 0.0991307091 0.0000000000 5.0718011033 0.1008877418 0.0000000000 5.2717933581 0.1026447712 0.0000000000 5.4717855954 0.1044017922 0.0000000000 5.6717778471 0.1061588076 0.0000000000 5.8717700955 0.1079158186 0.0000000000 6.0717623420 0.1096728246 0.0000000000 6.2717545884 0.1114298233 0.0000000000 6.4717468135 0.1131868108 0.0000000000 6.6717390573 0.1149437863 0.0000000000 6.871731298
[...]
      <PointData Scalars="radius">
        <DataArray type="Float32" Name="radius" format="ascii">
 0.1000000000 0.1000000000 0.1000000000 0.1000000000 0.1000000000 0.1000000000 0.1000000000 0.1000000000 0.1000000000 0.1000000000 0.1000000000 0.1000000000 0.1000000000 0.1000000000 0.1000000000 0.1000000000 0.1000000000 0.1000000000 0.1000000000 0.1000000000 0.1000000000 0.1000000000 0.1000000000 0.1000000000 0.1000000000 0.1000000000 0.1000000000 0.1000000000 0.1000000000 0.1000000000 0.1000000000 0.1000000000 0.1000000000 0.1000000000 0.1000000000 0.1000000000 0.1000000000 0.1000000000 0.1000000000 0.1000000000 0.1000000000 0.1000000000 0.1000000000 0.1000000000 0.1000000000 0.1000000000 0.1000000000 0.1000000000 0.1000000000 0.1000000000 0.1000000000 0.1000000000 0.1000000000 0.1000000000 0.1000000000 0.1000000000 0.1000000000 0.1000000000 0.1000000000 0.1000000000 0.1000000000 0.1000000000 0.1000000000 0.1000000000 0.1000000000 0.1000000000 0.1000000000 0.1000000000 0.1000000000 0.1000000000 0.1000000000 0.1000000000 0.1000000000 0.1000000000 0.1000000000 0.1000000000 0.1000000000 0.1000000000 0.1000000000 0.1000000000 0.1000000000 0.1000000000 0.1000000000 0.1000000000 0.1000000000 0.1000000000 0.1000000000 0.1000000000 0.1000000000 0.1000000000 0.1000000000 0.1000000000 0.1000000000 0.1000000000 0.1000000000 0.1000000000 0.1000000000 0.1000000000 0.1000000000 0.1000000000 0.1000000000 0.1000000000 0.1000000000 0.1000000000 0.1000000000 0.1000000000 0.1000000000 0.1000000000 0.1000000000 0.1000000000 0.1000000000 0.1000000000 0.1000000000 0.1000000000 0.1000000000 0.1000000000 0.1000000000 0.1000000000 0.1000000000 0.1000000000 0.1000000000 0.1000000000 0.1000000000 0.1000000000 0.1000000000 0.1000000000 0.1000000000 0.1000000000 0.1000000000 0.1000000000 0.1000000000 0.1000000000 0.1000000000 0.1000000000 0.1000000000 0.1000000000 0.1000000000 0.1000000000 0.1000000000 0.1000000000 0.1000000000 0.1000000000 0.1000000000 0.1000000000 0.1000000000 0.1000000000 0.1000000000 0.1000000000 0.1000000000 0.1000000000 0.1000000000 0.1000000000 0.1000000000 0.1000000000 0.1000000000 0.1000000000 0.1000000000 0.1000000000 0.1000000000 0.1000000000 0.1000000000 0.1000000000 0.1000000000 0.1000000000 0.1000000000 0.1000000000 0.1000000000 0.1000000000 0.1000000000 0.1000000000 0.1000000000 0.1000000000 0.1000000000 0.1000000000 0.1000000000 0.1000000000 0.1000000000 0.1000000000 0.1000000000 0.1000000000 0.1000000000 0.1000000000 0.1000000000 0.1000000000 0.1000000000 0.1000000000 0.1000000000 0.1000000000 0.1000000000 0.1000000000 0.1000000000 0.1000000000 0.1000000000 0.1000000000 0.1000000000 0.1000000000 0.1000000000 0.1000000000 0.1000000000 0.1000000000 0.1000000000 0.1000000000 0.1000000000 0.1000000000 0.1000000000 0.1000000000 0.1000000000 0.1000000000 0.1000000000 0.1000000000 0.1000000000 0.1000000000 0.1000000000 0.1000000000 0.1000000000 0.1000000000 0.1000000000 0.1000000000 0.1000000000 0.1000000000 0.1000000000 0.1000000000 0.1000000000 0.1000000000 0.1000000000 0.1000000000 0.1000000000 0.1000000000 0.1000000000 0.1000000000 0.1000000000 0.1000000000 0.1000000000 0.1000000000 0.1000000000 0.1000000000 0.1000000000 0.1000000000 0.1000000000 0.1000000000 0.1000000000 0.1000000000 0.1000000000 0.1000000000 0.1000000000 0.1000000000 0.1000000000 0.1000000000 0.1000000000 0.1000000000 0.1000000000 0.1000000000 0.1000000000 0.1000000000 0.1000000000 0.1000000000 0.1000000000 0.1000000000 0.1000000000 0.1000000000 0.1000000000 0.1000000000 0.1000000000 0.1000000000 0.1000000000 0.1000000000 0.1000000000 0.1000000000 0.1000000000 0.1000000000 0.1000000000 0.1000000000 0.1000000000 0.1000000000 0.1000000000 0.1000000000 0.1000000000 0.1000000000 0.1000000000 0.1000000000 0.1000000000 0.1000000000 0.1000000000 0.1000000000 0.1000000000 0.1000000000 0.1000000000 0.1000000000 0.1000000000 0.1000000000 0.1000000000 0.1000000000 0.1000000000 0.1000000000 0.1000000000 0.1000000000 0.1000000000 0.1000000000 0.1000000000 0.1000000000 0.1000000000 0.1000000000 0.1000000000 0.1000000000 0.1000000000 0.1000000000 0.1000000000 0.1000000000 0.1000000000 0.1000000000 0.1000000000 0.1000000000 0.1000000000 0.1000000000 0.1000000000 0.1000000000 0.1000000000 0.1000000000 0.1000000000 0.1000000000 0.1000000000 0.1000000000 0.1000000000 0.1000000000 0.1000000000 0.1000000000 0.1000000000 0.1000000000 0.1000000000 0.1000000000 0.1000000000 0.1000000000 0.1000000000 0.1000000000 0.1000000000 0.1000000000 0.1000000000 0.1000000000 0.1000000000 0.1000000000 0.1000000000 0.1000000000 0.1000000000 0.1000000000 0.1000000000 0.1000000000 0.1000000000 0.1000000000 0.1000000000 0.1000000000 0.1000000000 0.1000000000 0.1000000000 0.1000000000 0.1000000000 0.1000000000 0.1000000000 0.1000000000 0.1000000000 0.1000000000 0.1000000000 0.1000000000 0.1000000000 0.1000000000 0.1000000000 0.1000000000 0.1000000000 0.1000000000 0.1000000000 0.1000000000 0.1000000000 0.1000000000 0.1000000000 0.1000000000 0.1000000000 0.1000000000 0.1000000000 0.1000000000 0.1000000000 0.1000000000 0.1000000000 0.1000000000 0.1000000000 0.1000000000 0.1000000000 0.1000000000 0.1000000000 0.1000000000 0.1000000000 0.1000000000 0.1000000000 0.1000000000 0.1000000000 0.1000000000 0.1000000000 0.1000000000 0.1000000000 0.1000000000 0.1000000000 0.1000000000 0.1000000000 0.1000000000 0.1000000000 0.1000000000 0.1000000000 0.1000000000 0.1000000000 0.1000000000 0.1000000000 0.1000000000 0.1000000000 0.1000000000 0.1000000000 0.1000000000 0.1000000000 0.1000000000 0.1000000000 0.1000000000 0.1000000000 0.1000000000 0.1000000000 0.1000000000 0.1000000000 0.1000000000 0.1000000000 0.1000000000 0.1000000000 0.1000000000 0.1000000000 0.1000000000 0.1000000000 0.1000000000 0.1000000000 0.1000000000 0.1000000000 0.1000000000 0.1000000000 0.1000000000 0.1000000000 0.1000000000 0.1000000000 0.1000000000 0.1000000000 0.1000000000 0.1000000000 0.1000000000 0.1000000000 0.1000000000 0.1000000000 0.1000000000 0.1000000000 0.1000000000 0.1000000000 0.1000000000 0.1000000000 0.1000000000 0.1000000000 0.1000000000 0.1000000000 0.1000000000 0.1000000000 0.1000000000 0.1000000000 0.1000000000 0.1000000000 0.1000000000 0.1000000000 0.1000000000 0.1000000000 0.1000000000 0.1000000000 0.1000000000 0.1000000000 0.1000000000 0.1000000000 0.1000000000 0.1000000000 0.1000000000 0.1000000000 0.1000000000 0.1000000000 0.1000000000 0.1000000000 0.1000000000 0.1000000000 0.1000000000 0.1000000000 0.1000000000 0.1000000000 0.1000000000 0.1000000000 0.1000000000 0.1000000000 0.1000000000 0.1000000000 0.1000000000 0.1000000000 0.1000000000 0.1000000000 0.1000000000 0.1000000000 0.1000000000 0.1000000000 0.1000000000 0.1000000000 0.1000000000 0.1000000000 0.1000000000 0.1000000000 0.1000000000 0.1000000000 0.1000000000 0.1000000000 0.1000000000 0.1000000000 0.1000000000 0.1000000000 0.1000000000 0.1000000000 0.1000000000 0.1000000000 0.1000000000 0.1000000000 0.1000000000 0.1000000000 0.1000000000 0.1000000000 0.1000000000 0.1000000000 0.1000000000 0.1000000000 0.1000000000 0.1000000000 0.1000000000 0.1000000000 0.1000000000 0.1000000000 0.1000000000 0.1000000000 0.1000000000 0.1000000000 0.1000000000 0.1000000000 0.1000000000 0.1000000000 0.1000000000 0.1000000000 0.1000000000 0.1000000000 0.1000000000 0.1000000000 0.1000000000 0.1000000000 0.1000000000 0.1000000000 0.1000000000 0.1000000000 0.1000000000 0.1000000000 0.1000000000 0.1000000000 0.1000000000 0.1000000000 0.1000000000 0.1000000000 0.1000000000 0.1000000000 0.1000000000 0.1000000000 0.1000000000 0.1000000000 0.1000000000 0.1000000000 0.1000000000 0.1000000000 0.1000000000 0.1000000000 0.1000000000 0.1000000000 0.1000000000 0.1000000000 0.1000000000 0.1000000000 0.1000000000 0.1000000000 0.1000000000 0.1000000000 0.1000000000 0.1000000000 0.1000000000 0.1000000000 0.1000000000 0.1000000000 0.1000000000 0.1000000000 0.1000000000 0.1000000000 0.1000000000 0.1000000000 0.1000000000 0.1000000000 0.1000000000 0.1000000000 0.1000000000 0.1000000000 0.1000000000 0.1000000000 0.1000000000 0.1000000000 0.1000000000 0.1000000000 0.1000000000 0.1000000000 0.1000000000 0.1000000000 0.1000000000 0.1000000000 0.1000000000 0.1000000000 0.1000000000 0.1000000000 0.1000000000 0.1000000000 0.1000000000 0.1000000000 0.1000000000 0.1000000000 0.1000000000 0.1000000000 0.1000000000 0.1000000000 0.1000000000 0.1000000000 0.1000000000 0.1000000000 0.1000000000 0.1000000000 0.1000000000 0.1000000000 0.1000000000 0.1000000000 0.1000000000 0.1000000000 0.1000000000 0.1000000000 0.1000000000 0.1000000000 0.1000000000 0.1000000000 0.1000000000 0.1000000000 0.1000000000 0.1000000000 0.1000000000 0.1000000000 0.1000000000 0.1000000000 0.1000000000 0.1000000000 0.1000000000 0.1000000000 0.1000000000 0.1000000000 0.1000000000 0.1000000000 0.1000000000 0.1000000000 0.1000000000 0.1000000000 0.1000000000 0.1000000000 0.1000000000 0.1000000000 0.1000000000 0.1000000000 0.1000000000 0.1000000000 0.1000000000 0.1000000000 0.1000000000 0.1000000000 0.1000000000 0.1000000000 0.1000000000 0.1000000000 0.1000000000 0.1000000000 0.1000000000 0.1000000000 0.1000000000 0.1000000000 0.1000000000 0.1000000000 0.1000000000 0.1000000000 0.1000000000 0.1000000000 0.1000000000 0.1000000000 0.1000000000 0.1000000000 0.1000000000 0.1000000000 0.1000000000 0.1000000000 0.1000000000 0.1000000000 0.1000000000 0.1000000000 0.1000000000 0.1000000000 0.1000000000 0.1000000000 0.1000000000 0.1000000000 0.1000000000 0.1000000000 0.1000000000 0.1000000000 0.1000000000 0.1000000000 0.1000000000 0.1000000000 0.1000000000 0.1000000000 0.1000000000 0.1000000000 0.1000000000 0.1000000000 0.1000000000 0.1000000000 0.1000000000 0.1000000000 0.1000000000 0.1000000000 0.1000000000 0.1000000000 0.1000000000 0.1000000000 0.1000000000 0.1000000000 0.1000000000 0.1000000000 0.1000000000 0.1000000000 0.1000000000 0.1000000000 0.1000000000 0.1000000000 0.1000000000 0.1000000000 0.1000000000 0.1000000000 0.1000000000 0.1000000000 0.1000000000 0.1000000000 0.1000000000 0.1000000000 0.1000000000 0.1000000000 0.1000000000 0.1000000000 0.1000000000 0.1000000000 0.1000000000 0.1000000000 0.1000000000 0.1000000000 0.1000000000 0.1000000000 0.1000000000 0.1000000000 0.1000000000 0.1000000000 0.1000000000 0.1000000000 0.1000000000 0.1000000000 0.1000000000 0.1000000000 0.1000000000 0.1000000000 0.1000000000 0.1000000000 0.1000000000 0.1000000000 0.1000000000 0.1000000000 0.1000000000 0.1000000000 0.1000000000 0.1000000000 0.1000000000 0.1000000000 0.1000000000 0.1000000000 0.1000000000 0.1000000000 0.1000000000 0.1000000000 0.1000000000 0.1000000000 0.1000000000 0.1000000000 0.1000000000 0.1000000000 0.1000000000 0.1000000000 0.1000000000 0.1000000000 0.1000000000 0.1000000000 0.1000000000 0.1000000000 0.1000000000 0.1000000000 0.1000000000 0.1000000000 0.1000000000 0.1000000000 0.1000000000 0.1000000000 0.1000000000 0.1000000000 0.1000000000 0.1000000000 0.1000000000 0.1000000000 0.1000000000 0.1000000000 0.1000000000 0.1000000000 0.1000000000 0.1000000000 0.1000000000 0.1000000000 0.1000000000 0.1000000000 0.1000000000 0.1000000000 0.1000000000 0.1000000000 0.1000000000 0.1000000000 0.1000000000 0.1000000000 0.1000000000 0.1000000000 0.1000000000 0.1000000000 0.1000000000 0.1000000000 0.1000000000 0.1000000000 0.1000000000 0.1000000000 0.1000000000 0.1000000000 0.1000000000 0.1000000000 0.1000000000 0.1000000000 0.1000000000 0.1000000000 0.1000000000 0.1000000000 0.1000000000 0.1000000000 0.1000000000 0.1000000000 0.1000000000 0.1000000000 0.1000000000 0.1000000000 0.1000000000 0.1000000000 0.1000000000 0.1000000000 0.1000000000 0.1000000000 0.1000000000 0.1000000000 0.1000000000 0.1000000000 0.1000000000 0.1000000000 0.1000000000 0.1000000000 0.1000000000 0.1000000000 0.1000000000 0.1000000000 0.1000000000 0.1000000000 0.1000000000 0.1000000000 0.1000000000 0.1000000000 0.1000000000 0.1000000000 0.1000000000 0.1000000000 0.1000000000 0.1000000000 0.1000000000 0.1000000000 0.1000000000 0.1000000000 0.1000000000 0.1000000000 0.1000000000 0.1000000000 0.1000000000 0.1000000000 0.1000000000 0.1000000000 0.1000000000 0.1000000000 0.1000000000 0.1000000000 0.1000000000 0.1000000000 0.1000000000 0.1000000000 0.1000000000 0.1000000000 0.1000000000 0.1000000000 0.1000000000 0.1000000000 0.1000000000 0.1000000000 0.1000000000 0.1000000000 0.1000000000 0.1000000000 0.1000000000 0.1000000000 0.1000000000 0.1000000000 0.1000000000 0.1000000000 0.1000000000 0.1000000000 0.1000000000 0.1000000000 0.1000000000 0.1000000000 0.1000000000 0.1000000000 0.1000000000 0.1000000000 0.1000000000 0.1000000000 0.1000000000 0.1000000000 0.1000000000 0.1000000000 0.1000000000 0.1000000000 0.1000000000 0.1000000000 0.1000000000 0.1000000000 0.1000000000 0.1000000000 0.1000000000 0.1000000000 0.1000000000 0.1000000000 0.1000000000 0.1000000000 0.1000000000 0.1000000000 0.1000000000 0.1000000000 0.1000000000 0.1000000000 0.1000000000 0.1000000000 0.1000000000 0.1000000000 0.1000000000 0.1000000000 0.1000000000 0.1000000000 0.1000000000 0.1000000000 0.1000000000 0.1000000000 0.1000000000 0.1000000000 0.1000000000 0.1000000000 0.1000000000 0.1000000000 0.1000000000 0.1000000000 0.1000000000 0.1000000000 0.1000000000 0.1000000000 0.1000000000 0.1000000000 0.1000000000 0.1000000000 0.1000000000 0.1000000000 0.1000000000 0.1000000000 0.1000000000 0.1000000000 0.1000000000 0.1000000000 0.1000000000 0.1000000000 0.1000000000 0.1000000000 0.1000000000 0.1000000000 0.1000000000 0.1000000000 0.1000000000 0.1000000000 0.1000000000 0.1000000000 0.1000000000 0.1000000000 0.1000000000 0.1000000000 0.1000000000 0.1000000000 0.1000000000 0.1000000000 0.1000000000 0.1000000000 0.1000000000 0.1000000000 0.1000000000 0.1000000000 0.1000000000 0.1000000000 0.1000000000 0.1000000000 0.1000000000 0.1000000000 0.1000000000 0.1000000000 0.1000000000 0.1000000000 0.1000000000 0.1000000000 0.1000000000 0.1000000000 0.1000000000 0.1000000000 0.1000000000 0.1000000000 0.1000000000 0.1000000000 0.1000000000 0.1000000000 0.1000000000 0.1000000000 0.1000000000 0.1000000000 0.1000000000 0.1000000000 0.1000000000 0.1000000000 0.1000000000 0.1000000000 0.1000000000 0.1000000000 0.1000000000 0.1000000000 0.1000000000 0.1000000000 0.1000000000 0.1000000000 0.1000000000 0.1000000000 0.1000000000 0.1000000000 0.1000000000 0.1000000000 0.1000000000 0.1000000000 0.1000000000 0.1000000000 0.1000000000 0.1000000000 0.1000000000 0.1000000000 0.1000000000 0.1000000000 0.1000000000 0.1000000000 0.1000000000 0.1000000000 0.1000000000 0.1000000000 0.1000000000 0.1000000000 0.1000000000 0.1000000000 0.1000000000 0.1000000000 0.1000000000 0.1000000000 0.1000000000 0.1000000000 0.1000000000 0.1000000000 0.1000000000 0.1000000000 0.1000000000 0.1000000000 0.1000000000 0.1000000000 0.1000000000 0.1000000000 0.1000000000 0.1000000000 0.1000000000 0.1000000000 0.1000000000 0.1000000000 0.1000000000 0.1000000000 0.1000000000 0.1000000000 0.1000000000 0.1000000000 0.1000000000 0.1000000000 0.1000000000 0.1000000000 0.1000000000 0.1000000000 0.1000000000 0.1000000000 0.1000000000 0.1000000000 0.1000000000 0.1000000000 0.1000000000 0.1000000000 0.1000000000 0.1000000000 0.1000000000 0.1000000000 0.1000000000 0.1000000000 0.1000000000 0.1000000000 0.1000000000 0.1000000000 0.1000000000 0.1000000000 0.1000000000 0.1000000000 0.1000000000 0.1000000000 0.1000000000 0.1000000000 0.1000000000 0.1000000000 0.1000000000 0.1000000000 0.1000000000 0.1000000000 0.1000000000 0.1000000000 0.1000000000 0.1000000000 0.1000000000 0.1000000000 0.1000000000 0.1000000000 0.1000000000 0.1000000000 0.1000000000 0.1000000000 0.1000000000 0.1000000000 0.1000000000 0.1000000000 0.1000000000 0.1000000000 0.1000000000 0.1000000000 0.1000000000 0.1000000000 0.1000000000 0.1000000000 0.1000000000 0.1000000000 0.1000000000 0.1000000000 0.1000000000 0.1000000000 0.1000000000 0.1000000000 0.1000000000 0.1000000000 0.1000000000 0.1000000000 0.1000000000 0.1000000000 0.1000000000 0.1000000000 0.1000000000 0.1000000000 0.1000000000 0.1000000000 0.1000000000 0.1000000000 0.1000000000 0.1000000000 0.1000000000 0.1000000000 0.1000000000 0.1000000000 0.1000000000 0.1000000000 0.1000000000 0.1000000000 0.1000000000 0.1000000000 0.1000000000 0.1000000000 0.1000000000 0.1000000000 0.1000000000 0.1000000000 0.1000000000 0.1000000000 0.1000000000 0.1000000000 0.1000000000 0.1000000000 0.1000000000 0.1000000000 0.1000000000 0.1000000000 0.1000000000 0.1000000000 0.1000000000 0.1000000000 0.1000000000 0.1000000000 0.1000000000 0.1000000000 0.1000000000 0.1000000000 0.1000000000 0.1000000000 0.1000000000 0.1000000000 0.1000000000 0.1000000000 0.1000000000 0.1000000000 0.1000000000 0.1000000000 0.1000000000 0.1000000000 0.1000000000 0.1000000000 0.1000000000 0.1000000000 0.1000000000 0.1000000000 0.1000000000 0.1000000000 0.1000000000 0.1000000000 0.1000000000 0.1000000000 0.1000000000 0.1000000000 0.1000000000 0.1000000000 0.1000000000 0.1000000000 0.1000000000 0.1000000000 0.1000000000 0.1000000000 0.1000000000 0.1000000000 0.1000000000 0.1000000000 0.1000000000 0.1000000000 0.1000000000 0.1000000000 0.1000000000 0.1000000000 0.1000000000 0.1000000000 0.1000000000 0.1000000000 0.1000000000 0.1000000000 0.1000000000 0.1000000000 0.1000000000 0.1000000000 0.1000000000 0.1000000000 0.1000000000 0.1000000000 0.1000000000 0.1000000000 0.1000000000 0.1000000000 0.1000000000 0.1000000000 0.1000000000 0.1000000000 0.1000000000 0.1000000000 0.1000000000 0.1000000000 0.1000000000 0.1000000000 0.1000000000 0.1000000000 0.1000000000 0.1000000000 0.1000000000 0.1000000000 0.1000000000 0.1000000000 0.1000000000 0.1000000000 0.1000000000 0.1000000000 0.1000000000 0.1000000000 0.1000000000 0.1000000000 0.1000000000 0.1000000000 0.1000000000 0.1000000000 0.1000000000 0.1000000000 0.1000000000 0.1000000000 0.1000000000 0.1000000000 0.1000000000 0.1000000000 0.1000000000 0.1000000000 0.1000000000 0.1000000000 0.1000000000 0.1000000000 0.1000000000 0.1000000000 0.1000000000 0.1000000000 0.1000000000 0.1000000000 0.1000000000 0.1000000000 0.1000000000 0.1000000000 0.1000000000 0.1000000000 0.1000000000 0.1000000000 0.1000000000 0.1000000000 0.1000000000 0.1000000000 0.1000000000 0.1000000000 0.1000000000 0.1000000000 0.1000000000 0.1000000000 0.1000000000 0.1000000000 0.1000000000 0.1000000000 0.1000000000 0.1000000000 0.1000000000 0.1000000000 0.1000000000 0.1000000000 0.1000000000 0.1000000000 0.1000000000 0.1000000000 0.1000000000 0.1000000000 0.1000000000 0.1000000000 0.1000000000 0.1000000000 0.1000000000 0.1000000000 0.1000000000 0.1000000000 0.1000000000 0.1000000000 0.1000000000 0.1000000000 0.1000000000 0.1000000000 0.1000000000 0.1000000000 0.1000000000 0.1000000000 0.1000000000 0.1000000000 0.1000000000 0.1000000000 0.1000000000 0.1000000000 0.1000000000 0.1000000000 0.1000000000 0.1000000000 0.1000000000 0.1000000000 0.1000000000 0.1000000000 0.1000000000 0.1000000000 0.1000000000 0.1000000000 0.1000000000 0.1000000000 0.1000000000 0.1000000000 0.1000000000 0.1000000000 0.1000000000 0.1000000000 0.1000000000 0.1000000000 0.1000000000 0.1000000000 0.1000000000 0.1000000000 0.1000000000 0.1000000000 0.1000000000 0.1000000000 0.1000000000 0.1000000000 0.1000000000 0.1000000000 0.1000000000 0.1000000000 0.1000000000 0.1000000000 0.1000000000 0.1000000000 0.1000000000 0.1000000000 0.1000000000 0.1000000000 0.1000000000 0.1000000000 0.1000000000 0.1000000000 0.1000000000 0.1000000000 0.1000000000 0.1000000000 0.1000000000 0.1000000000 0.1000000000 0.1000000000 0.1000000000 0.1000000000 0.1000000000 0.1000000000 0.1000000000 0.1000000000 0.1000000000 0.1000000000 0.1000000000 0.1000000000 0.1000000000 0.1000000000 0.1000000000 0.1000000000 0.1000000000 0.1000000000 0.1000000000 0.1000000000 0.1000000000 0.1000000000 0.1000000000 0.1000000000 0.1000000000 0.1000000000 0.1000000000 0.1000000000 0.1000000000 0.1000000000 0.1000000000 0.1000000000 0.1000000000 0.1000000000 0.1000000000 0.1000000000 0.1000000000 0.1000000000 0.1000000000 0.1000000000 0.1000000000 0.1000000000 0.1000000000 0.1000000000 0.1000000000 0.1000000000 0.1000000000 0.1000000000 0.1000000000 0.10000000