<?xml version="1.0"?>
<VTKFile type="UnstructuredGrid" version="0.1" byte_order="LittleEndian">
  <UnstructuredGrid>
    <FieldData>
      <DataArray type="Float32" Name="TIME"  NumberOfTuples="1" format="ascii"> 1.0500000000 </DataArray>
      <DataArray type="Int32"   Name="STEP"  NumberOfTuples="1" format="ascii"> 262500 </DataArray>
    </FieldData>
    <Piece NumberOfPoints="11600" NumberOfCells="11600">
      <Points>
        <DataArray type="Float32" NumberOfComponents="3" format="ascii">
 -0.1653418967 -0.3769400116 0.0000000000 0.0346461441 -0.3747529220 0.0000000000 0.2346341890 -0.3725658322 0.0000000000 0.4346222412 -0.3703787403 0.0000000000 0.6346102883 -0.3681916477 0.0000000000 0.8345983349 -0.3660045559 0.0000000000 1.0345863824 -0.3638174646 0.0000000000 1.2345744304 -0.3616303757 0.0000000000 1.4345625046 -0.3594432837 0.0000000000 1.6345505548 -0.3572561882 0.0000000000 1.8345386059 -0.3550690939 0.0000000000 2.0345266575 -0.3528820001 0.0000000000 2.2345147085 -0.3506949076 0.0000000000 2.4345027924 -0.3485078097 0.0000000000 2.6344908438 -0.3463207079 0.0000000000 2.8344788966 -0.3441336086 0.0000000000 3.0344669497 -0.3419465100 0.0000000000 3.2344550025 -0.3397594140 0.0000000000 3.4344430984 -0.3375723116 0.0000000000 3.6344311524 -0.3353852041 0.0000000000 3.8344192083 -0.3331980995 0.0000000000 4.0344072648 -0.3310109947 0.0000000000 4.2343953196 -0.3288238925 0.0000000000 4.4343834231 -0.3266367839 0.0000000000 4.6343714777 -0.3244496707 0.0000000000 4.8343595348 -0.3222625614 0.0000000000 5.0343475920 -0.3200754523 0.0000000000 5.2343356475 -0.3178883463 0.0000000000 5.4343237533 -0.3157012351 0.0000000000 5.6343118098 -0.3135141193 0.0000000000 5.8342998693 -0.3113270067 0.0000000000 6.0342879291 -0.3091398947 0.0000000000 6.2342759869 -0.3069527884 0.0000000000 6.4342641118 -0.3047656761 0.0000000000 6.6342521715 -0.3025785563 0.0000000000 6.8342402346 -0.3003914401 0.0000000000 7.0342282976 -0.2982043245 0.0000000000 7.2342163577 -0.2960172142 0.0000000000 7.4342044919 -0.2938300950 0.0000000000 7.6341925522 -0.2916429662 0.0000000000 7.8341806150 -0.2894558417 0.0000000000 8.0341686775 -0.2872687185 0.0000000000 8.2341567373 -0.2850816006 0.0000000000 8.4341448703 -0.2828944751 0.0000000000 8.6341329302 -0.2807073406 0.0000000000 8.8341209928 -0.2785202100 0.0000000000 9.0341090549 -0.2763330788 0.0000000000 9.2340971136 -0.2741459509 0.0000000000 9.4340852352 -0.2719588151 0.0000000000 9.6340732927 -0.2697716706 0.0000000000 9.8340613528 -0.2675845297 0.0000000000 10.0340494126 -0.2653973884 0.0000000000 10.2340374695 -0.2632102496 0.0000000000 10.4340255818 -0.2610231035 0.0000000000 10.6340136367 -0.2588359489 0.0000000000 10.8340016932 -0.2566487978 0.0000000000 11.0339897488 -0.2544616476 0.0000000000 11.2339778027 -0.2522745004 0.0000000000 11.4339658986 -0.2500873480 0.0000000000 11.6339539512 -0.2479001898 0.0000000000 11.8339420047 -0.2457130338 0.0000000000 12.0339300577 -0.2435258777 0.0000000000 12.2339181093 -0.2413387235 0.0000000000 12.4339061919 -0.2391515640 0.0000000000 12.6338942405 -0.2369644005 0.0000000000 12.8338823208 -0.2347772354 0.0000000000 13.0338703696 -0.2325900581 0.0000000000 13.2338584185 -0.2304028823 0.0000000000 13.4338464898 -0.2282156990 0.0000000000 13.6338345383 -0.2260285057 0.0000000000 13.8338226138 -0.2238412901 0.0000000000 14.0460508547 -0.2193475318 0.0000000000 14.2460506389 -0.2196409985 0.0000000000 14.4460504230 -0.2199344650 0.0000000000 14.6460502097 -0.2202279308 0.0000000000 14.8460499940 -0.2205213975 0.0000000000 15.0460497793 -0.2208148634 0.0000000000 15.2460495645 -0.2211083299 0.0000000000 15.4460493488 -0.2214017960 0.0000000000 15.6460491350 -0.2216952622 0.0000000000 15.8460489193 -0.2219887285 0.0000000000 16.0460487049 -0.2222821947 0.0000000000 16.2460484900 -0.2225756605 0.0000000000 16.4801880585 -0.1661174850 -0.0000000017 16.6801742995 -0.1637715039 -0.0000000015 16.8801605472 -0.1614255284 -0.0000000013 17.0801467941 -0.1590795538 -0.0000000011 17.2801330419 -0.1567335794 -0.0000000009 17.4801192898 -0.1543876026 -0.0000000007 17.6801055369 -0.1520416264 -0.0000000005 17.8800917948 -0.1496956527 -0.0000000002 18.0800780407 -0.1473496756 -0.0000000000 18.2800642864 -0.1450036991 0.0000000002 18.4800505321 -0.1426577231 0.0000000004 18.6800367787 -0.1403117484 0.0000000006 18.8800230382 -0.1379657735 0.0000000008 19.0800092848 -0.1356197937 0.0000000010 19.2799955299 -0.1332738137 0.0000000011 19.4799817739 -0.1309278323 0.0000000013 19.6799680155 -0.1285818493 0.0000000015 -0.0672419505 -0.2026517441 0.0000000000 0.1327460914 -0.2004646551 0.0000000000 0.3327341387 -0.1982775650 0.0000000000 0.5327221874 -0.1960904724 0.0000000000 0.7327102345 -0.1939033803 0.0000000000 0.9326982829 -0.1917162888 0.0000000000 1.1326863333 -0.1895291983 0.0000000000 1.3326743900 -0.1873421093 0.0000000000 1.5326624478 -0.1851550148 0.0000000000 1.7326505007 -0.1829679204 0.0000000000 1.9326385536 -0.1807808264 0.0000000000 2.1326266080 -0.1785937324 0.0000000000 2.3326146690 -0.1764066389 0.0000000000 2.5326027304 -0.1742195378 0.0000000000 2.7325907861 -0.1720324379 0.0000000000 2.9325788415 -0.1698453388 0.0000000000 3.1325668989 -0.1676582407 0.0000000000 3.3325549648 -0.1654711437 0.0000000000 3.5325430315 -0.1632840374 0.0000000000 3.7325310911 -0.1610969321 0.0000000000 3.9325191500 -0.1589098274 0.0000000000 4.1325072106 -0.1567227229 0.0000000000 4.3324952805 -0.1545356199 0.0000000000 4.5324833507 -0.1523485073 0.0000000000 4.7324714123 -0.1501613967 0.0000000000 4.9324594726 -0.1479742875 0.0000000000 5.1324475348 -0.1457871790 0.0000000000 5.3324356066 -0.1436000727 0.0000000000 5.5324236791 -0.1414129573 0.0000000000 5.7324117429 -0.1392258442 0.0000000000 5.9323998064 -0.1370387321 0.0000000000 6.1323878733 -0.1348516221 0.0000000000 6.3323759527 -0.1326645155 0.0000000000 6.5323640327 -0.1304773966 0.0000000000 6.7323521016 -0.1282902799 0.0000000000 6.9323401695 -0.1261031645 0.0000000000 7.1323282396 -0.1239160502 0.0000000000 7.3323163225 -0.1217289385 0.0000000000 7.5323044053 -0.1195418111 0.0000000000 7.7322924752 -0.1173546857 0.0000000000 7.9322805431 -0.1151675623 0.0000000000 8.1322686130 -0.1129804407 0.0000000000 8.3322566956 -0.1107933218 0.0000000000 8.5322447780 -0.1086061883 0.0000000000 8.7322328469 -0.1064190570 0.0000000000 8.9322209131 -0.1042319261 0.0000000000 9.1322089799 -0.1020447956 0.0000000000 9.3321970572 -0.0998576662 0.0000000000 9.5321851341 -0.0976705229 0.0000000000 9.7321731997 -0.0954833816 0.0000000000 9.9321612630 -0.0932962408 0.0000000000 10.1321493272 -0.0911091000 0.0000000000 10.3321374005 -0.0889219596 0.0000000000 10.5321254727 -0.0867348062 0.0000000000 10.7321135346 -0.0845476542 0.0000000000 10.9321015939 -0.0823605038 0.0000000000 11.1320896533 -0.0801733545 0.0000000000 11.3320777199 -0.0779862064 0.0000000000 11.5320657860 -0.0757990490 0.0000000000 11.7320538433 -0.0736118925 0.0000000000 11.9320418986 -0.0714247367 0.0000000000 12.1320299537 -0.0692375808 0.0000000000 12.3320180148 -0.0670504254 0.0000000000 12.5320060759 -0.0648632629 0.0000000000 12.7319941350 -0.0626761004 0.0000000000 12.9319821923 -0.0604889275 0.0000000000 13.1319702434 -0.0583017516 0.0000000000 13.3319582969 -0.0561145731 0.0000000000 13.5319463478 -0.0539273843 0.0000000000 13.7319343941 -0.0517401873 0.0000000000 13.9463051094 -0.0459959075 0.0000000000 14.1463048955 -0.0462893722 0.0000000000 14.3463046806 -0.0465828384 0.0000000000 14.5463044657 -0.0468763052 0.0000000000 14.7463042508 -0.0471697713 0.0000000000 14.9463040359 -0.0474632378 0.0000000000 15.1463038208 -0.0477567041 0.0000000000 15.3463036057 -0.0480501701 0.0000000000 15.5463033911 -0.0483436368 0.0000000000 15.7463031760 -0.0486371025 0.0000000000 15.9463029614 -0.0489305685 0.0000000000 16.1463027437 -0.0492240369 0.0000000000 16.3781632596 0.0059026879 -0.0000000016 16.5781494996 0.0082486687 -0.0000000014 16.7781357463 0.0105946466 -0.0000000012 16.9781219945 0.0129406216 -0.0000000010 17.1781082416 0.0152865960 -0.0000000008 17.3780944899 0.0176325711 -0.0000000006 17.5780807383 0.0199785477 -0.0000000003 17.7780669893 0.0223245228 -0.0000000001 17.9780532398 0.0246704986 0.0000000001 18.1780394872 0.0270164750 0.0000000003 18.3780257343 0.0293624511 0.0000000005 18.5780119818 0.0317084262 0.0000000007 18.7779982321 0.0340544008 0.0000000009 18.9779844819 0.0364003789 0.0000000011 19.1779707277 0.0387463586 0.0000000013 19.3779569718 0.0410923394 0.0000000014 19.5779432143 0.0434383217 0.0000000016 19.7779294544 0.0457843054 0.0000000018 -0.1691300466 -0.0305505652 0.0000000000 0.0308579951 -0.0283634761 0.0000000000 0.2308460397 -0.0261763866 0.0000000000 0.4308340873 -0.0239892952 0.0000000000 0.6308221345 -0.0218022032 0.0000000000 0.8308101821 -0.0196151116 0.0000000000 1.0307982315 -0.0174280210 0.0000000000 1.2307862816 -0.0152409310 0.0000000000 1.4307743435 -0.0130538388 0.0000000000 1.6307623951 -0.0108667452 0.0000000000 1.8307504479 -0.0086796512 0.0000000000 2.0307385009 -0.0064925573 0.0000000000 2.2307265537 -0.0043054632 0.0000000000 2.4307146211 -0.0021183654 0.0000000000 2.6307026751 0.0000687337 0.0000000000 2.8306907306 0.0022558329 0.0000000000 3.0306787867 0.0044429313 0.0000000000 3.2306668420 0.0066300294 0.0000000000 3.4306549173 0.0088171313 0.0000000000 3.6306429740 0.0110042360 0.0000000000 3.8306310325 0.0131913408 0.0000000000 4.0306190913 0.0153784453 0.0000000000 4.2306071490 0.0175655497 0.0000000000 4.4305952302 0.0197526577 0.0000000000 4.6305832889 0.0219397682 0.0000000000 4.8305713497 0.0241268779 0.0000000000 5.0305594104 0.0263139869 0.0000000000 5.2305474699 0.0285010953 0.0000000000 5.4305355550 0.0306882058 0.0000000000 5.6305236156 0.0328753191 0.0000000000 5.8305116790 0.0350624314 0.0000000000 6.0304997434 0.0372495423 0.0000000000 6.2304878068 0.0394366522 0.0000000000 6.4304759021 0.0416237638 0.0000000000 6.6304639668 0.0438108806 0.0000000000 6.8304520345 0.0459
[...]
      <PointData Scalars="radius">
        <DataArray type="Float32" Name="radius" format="ascii">
 0.1000000000 0.1000000000 0.1000000000 0.1000000000 0.1000000000 0.1000000000 0.1000000000 0.1000000000 0.1000000000 0.1000000000 0.1000000000 0.1000000000 0.1000000000 0.1000000000 0.1000000000 0.1000000000 0.1000000000 0.1000000000 0.1000000000 0.1000000000 0.1000000000 0.1000000000 0.1000000000 0.1000000000 0.1000000000 0.1000000000 0.1000000000 0.1000000000 0.1000000000 0.1000000000 0.1000000000 0.1000000000 0.1000000000 0.1000000000 0.1000000000 0.1000000000 0.1000000000 0.1000000000 0.1000000000 0.1000000000 0.1000000000 0.1000000000 0.1000000000 0.1000000000 0.1000000000 0.1000000000 0.1000000000 0.1000000000 0.1000000000 0.1000000000 0.1000000000 0.1000000000 0.1000000000 0.1000000000 0.1000000000 0.1000000000 0.1000000000 0.1000000000 0.1000000000 0.1000000000 0.1000000000 0.1000000000 0.1000000000 0.1000000000 0.1000000000 0.1000000000 0.1000000000 0.1000000000 0.1000000000 0.1000000000 0.1000000000 0.1000000000 0.1000000000 0.1000000000 0.1000000000 0.1000000000 0.1000000000 0.1000000000 0.1000000000 0.1000000000 0.1000000000 0.1000000000 0.1000000000 0.1000000000 0.1000000000 0.1000000000 0.1000000000 0.1000000000 0.1000000000 0.1000000000 0.1000000000 0.1000000000 0.1000000000 0.1000000000 0.1000000000 0.1000000000 0.1000000000 0.1000000000 0.1000000000 0.1000000000 0.1000000000 0.1000000000 0.1000000000 0.1000000000 0.1000000000 0.1000000000 0.1000000000 0.1000000000 0.1000000000 0.1000000000 0.1000000000 0.1000000000 0.1000000000 0.1000000000 0.1000000000 0.1000000000 0.1000000000 0.1000000000 0.1000000000 0.1000000000 0.1000000000 0.1000000000 0.1000000000 0.1000000000 0.1000000000 0.1000000000 0.1000000000 0.1000000000 0.1000000000 0.1000000000 0.1000000000 0.1000000000 0.1000000000 0.1000000000 0.1000000000 0.1000000000 0.1000000000 0.1000000000 0.1000000000 0.1000000000 0.1000000000 0.1000000000 0.1000000000 0.1000000000 0.1000000000 0.1000000000 0.1000000000 0.1000000000 0.1000000000 0.1000000000 0.1000000000 0.1000000000 0.1000000000 0.1000000000 0.1000000000 0.1000000000 0.1000000000 0.1000000000 0.1000000000 0.1000000000 0.1000000000 0.1000000000 0.1000000000 0.1000000000 0.1000000000 0.1000000000 0.1000000000 0.1000000000 0.1000000000 0.1000000000 0.1000000000 0.1000000000 0.1000000000 0.1000000000 0.1000000000 0.1000000000 0.1000000000 0.1000000000 0.1000000000 0.1000000000 0.1000000000 0.1000000000 0.1000000000 0.1000000000 0.1000000000 0.1000000000 0.1000000000 0.1000000000 0.1000000000 0.1000000000 0.1000000000 0.1000000000 0.1000000000 0.1000000000 0.1000000000 0.1000000000 0.1000000000 0.1000000000 0.1000000000 0.1000000000 0.1000000000 0.1000000000 0.1000000000 0.1000000000 0.1000000000 0.1000000000 0.1000000000 0.1000000000 0.1000000000 0.1000000000 0.1000000000 0.1000000000 0.1000000000 0.1000000000 0.1000000000 0.1000000000 0.1000000000 0.1000000000 0.1000000000 0.1000000000 0.1000000000 0.1000000000 0.1000000000 0.1000000000 0.1000000000 0.1000000000 0.1000000000 0.1000000000 0.1000000000 0.1000000000 0.1000000000 0.1000000000 0.1000000000 0.1000000000 0.1000000000 0.1000000000 0.1000000000 0.1000000000 0.1000000000 0.1000000000 0.1000000000 0.1000000000 0.1000000000 0.1000000000 0.1000000000 0.1000000000 0.1000000000 0.1000000000 0.1000000000 0.1000000000 0.1000000000 0.1000000000 0.1000000000 0.1000000000 0.1000000000 0.1000000000 0.1000000000 0.1000000000 0.1000000000 0.1000000000 0.1000000000 0.1000000000 0.1000000000 0.1000000000 0.1000000000 0.1000000000 0.1000000000 0.1000000000 0.1000000000 0.1000000000 0.1000000000 0.1000000000 0.1000000000 0.1000000000 0.1000000000 0.1000000000 0.1000000000 0.1000000000 0.1000000000 0.1000000000 0.1000000000 0.1000000000 0.1000000000 0.1000000000 0.1000000000 0.1000000000 0.1000000000 0.1000000000 0.1000000000 0.1000000000 0.1000000000 0.1000000000 0.1000000000 0.1000000000 0.1000000000 0.1000000000 0.1000000000 0.1000000000 0.1000000000 0.1000000000 0.1000000000 0.1000000000 0.1000000000 0.1000000000 0.1000000000 0.1000000000 0.1000000000 0.1000000000 0.1000000000 0.1000000000 0.1000000000 0.1000000000 0.1000000000 0.1000000000 0.1000000000 0.1000000000 0.1000000000 0.1000000000 0.1000000000 0.1000000000 0.1000000000 0.1000000000 0.1000000000 0.1000000000 0.1000000000 0.1000000000 0.1000000000 0.1000000000 0.1000000000 0.1000000000 0.1000000000 0.1000000000 0.1000000000 0.1000000000 0.1000000000 0.1000000000 0.1000000000 0.1000000000 0.1000000000 0.1000000000 0.1000000000 0.1000000000 0.1000000000 0.1000000000 0.1000000000 0.1000000000 0.1000000000 0.1000000000 0.1000000000 0.1000000000 0.1000000000 0.1000000000 0.1000000000 0.1000000000 0.1000000000 0.1000000000 0.1000000000 0.1000000000 0.1000000000 0.1000000000 0.1000000000 0.1000000000 0.1000000000 0.1000000000 0.1000000000 0.1000000000 0.1000000000 0.1000000000 0.1000000000 0.1000000000 0.1000000000 0.1000000000 0.1000000000 0.1000000000 0.1000000000 0.1000000000 0.1000000000 0.1000000000 0.1000000000 0.1000000000 0.1000000000 0.1000000000 0.1000000000 0.1000000000 0.1000000000 0.1000000000 0.1000000000 0.1000000000 0.1000000000 0.1000000000 0.1000000000 0.1000000000 0.1000000000 0.1000000000 0.1000000000 0.1000000000 0.1000000000 0.1000000000 0.1000000000 0.1000000000 0.1000000000 0.1000000000 0.1000000000 0.1000000000 0.1000000000 0.1000000000 0.1000000000 0.1000000000 0.1000000000 0.1000000000 0.1000000000 0.1000000000 0.1000000000 0.1000000000 0.1000000000 0.1000000000 0.1000000000 0.1000000000 0.1000000000 0.1000000000 0.1000000000 0.1000000000 0.1000000000 0.1000000000 0.1000000000 0.1000000000 0.1000000000 0.1000000000 0.1000000000 0.1000000000 0.1000000000 0.1000000000 0.1000000000 0.1000000000 0.1000000000 0.1000000000 0.1000000000 0.1000000000 0.1000000000 0.1000000000 0.1000000000 0.1000000000 0.1000000000 0.1000000000 0.1000000000 0.1000000000 0.1000000000 0.1000000000 0.1000000000 0.1000000000 0.1000000000 0.1000000000 0.1000000000 0.1000000000 0.1000000000 0.1000000000 0.1000000000 0.1000000000 0.1000000000 0.1000000000 0.1000000000 0.1000000000 0.1000000000 0.1000000000 0.1000000000 0.1000000000 0.1000000000 0.1000000000 0.1000000000 0.1000000000 0.1000000000 0.1000000000 0.1000000000 0.1000000000 0.1000000000 0.1000000000 0.1000000000 0.1000000000 0.1000000000 0.1000000000 0.1000000000 0.1000000000 0.1000000000 0.1000000000 0.1000000000 0.1000000000 0.1000000000 0.1000000000 0.1000000000 0.1000000000 0.1000000000 0.1000000000 0.1000000000 0.1000000000 0.1000000000 0.1000000000 0.1000000000 0.1000000000 0.1000000000 0.1000000000 0.1000000000 0.1000000000 0.1000000000 0.1000000000 0.1000000000 0.1000000000 0.1000000000 0.1000000000 0.1000000000 0.1000000000 0.1000000000 0.1000000000 0.1000000000 0.1000000000 0.1000000000 0.1000000000 0.1000000000 0.1000000000 0.1000000000 0.1000000000 0.1000000000 0.1000000000 0.1000000000 0.1000000000 0.1000000000 0.1000000000 0.1000000000 0.1000000000 0.1000000000 0.1000000000 0.1000000000 0.1000000000 0.1000000000 0.1000000000 0.1000000000 0.1000000000 0.1000000000 0.1000000000 0.1000000000 0.1000000000 0.1000000000 0.1000000000 0.1000000000 0.1000000000 0.1000000000 0.1000000000 0.1000000000 0.1000000000 0.1000000000 0.1000000000 0.1000000000 0.1000000000 0.1000000000 0.1000000000 0.1000000000 0.1000000000 0.1000000000 0.1000000000 0.1000000000 0.1000000000 0.1000000000 0.1000000000 0.1000000000 0.1000000000 0.1000000000 0.1000000000 0.1000000000 0.1000000000 0.1000000000 0.1000000000 0.1000000000 0.1000000000 0.1000000000 0.1000000000 0.1000000000 0.1000000000 0.1000000000 0.1000000000 0.1000000000 0.1000000000 0.1000000000 0.1000000000 0.1000000000 0.1000000000 0.1000000000 0.1000000000 0.1000000000 0.1000000000 0.1000000000 0.1000000000 0.1000000000 0.1000000000 0.1000000000 0.1000000000 0.1000000000 0.1000000000 0.1000000000 0.1000000000 0.1000000000 0.1000000000 0.1000000000 0.1000000000 0.1000000000 0.1000000000 0.1000000000 0.1000000000 0.1000000000 0.1000000000 0.1000000000 0.1000000000 0.1000000000 0.1000000000 0.1000000000 0.1000000000 0.1000000000 0.1000000000 0.1000000000 0.1000000000 0.1000000000 0.1000000000 0.1000000000 0.1000000000 0.1000000000 0.1000000000 0.1000000000 0.1000000000 0.1000000000 0.1000000000 0.1000000000 0.1000000000 0.1000000000 0.1000000000 0.1000000000 0.1000000000 0.1000000000 0.1000000000 0.1000000000 0.1000000000 0.1000000000 0.1000000000 0.1000000000 0.1000000000 0.1000000000 0.1000000000 0.1000000000 0.1000000000 0.1000000000 0.1000000000 0.1000000000 0.1000000000 0.1000000000 0.1000000000 0.1000000000 0.1000000000 0.1000000000 0.1000000000 0.1000000000 0.1000000000 0.1000000000 0.1000000000 0.1000000000 0.1000000000 0.1000000000 0.1000000000 0.1000000000 0.1000000000 0.1000000000 0.1000000000 0.1000000000 0.1000000000 0.1000000000 0.1000000000 0.1000000000 0.1000000000 0.1000000000 0.1000000000 0.1000000000 0.1000000000 0.1000000000 0.1000000000 0.1000000000 0.1000000000 0.1000000000 0.1000000000 0.1000000000 0.1000000000 0.1000000000 0.1000000000 0.1000000000 0.1000000000 0.1000000000 0.1000000000 0.1000000000 0.1000000000 0.1000000000 0.1000000000 0.1000000000 0.1000000000 0.1000000000 0.1000000000 0.1000000000 0.1000000000 0.1000000000 0.1000000000 0.1000000000 0.1000000000 0.1000000000 0.1000000000 0.1000000000 0.1000000000 0.1000000000 0.1000000000 0.1000000000 0.1000000000 0.1000000000 0.1000000000 0.1000000000 0.1000000000 0.1000000000 0.1000000000 0.1000000000 0.1000000000 0.1000000000 0.1000000000 0.1000000000 0.1000000000 0.1000000000 0.1000000000 0.1000000000 0.1000000000 0.1000000000 0.1000000000 0.1000000000 0.1000000000 0.1000000000 0.1000000000 0.1000000000 0.1000000000 0.1000000000 0.1000000000 0.1000000000 0.1000000000 0.1000000000 0.1000000000 0.1000000000 0.1000000000 0.1000000000 0.1000000000 0.1000000000 0.1000000000 0.1000000000 0.1000000000 0.1000000000 0.1000000000 0.1000000000 0.1000000000 0.1000000000 0.1000000000 0.1000000000 0.1000000000 0.1000000000 0.1000000000 0.1000000000 0.1000000000 0.1000000000 0.1000000000 0.1000000000 0.1000000000 0.1000000000 0.1000000000 0.1000000000 0.1000000000 0.1000000000 0.1000000000 0.1000000000 0.1000000000 0.1000000000 0.1000000000 0.1000000000 0.1000000000 0.1000000000 0.1000000000 0.1000000000 0.1000000000 0.1000000000 0.1000000000 0.1000000000 0.1000000000 0.1000000000 0.1000000000 0.1000000000 0.1000000000 0.1000000000 0.1000000000 0.1000000000 0.1000000000 0.1000000000 0.1000000000 0.1000000000 0.1000000000 0.1000000000 0.1000000000 0.1000000000 0.1000000000 0.1000000000 0.1000000000 0.1000000000 0.1000000000 0.1000000000 0.1000000000 0.1000000000 0.1000000000 0.1000000000 0.1000000000 0.1000000000 0.1000000000 0.1000000000 0.1000000000 0.1000000000 0.1000000000 0.1000000000 0.1000000000 0.1000000000 0.1000000000 0.1000000000 0.1000000000 0.1000000000 0.1000000000 0.1000000000 0.1000000000 0.1000000000 0.1000000000 0.1000000000 0.1000000000 0.1000000000 0.1000000000 0.1000000000 0.1000000000 0.1000000000 0.1000000000 0.1000000000 0.1000000000 0.1000000000 0.1000000000 0.1000000000 0.1000000000 0.1000000000 0.1000000000 0.1000000000 0.1000000000 0.1000000000 0.1000000000 0.1000000000 0.1000000000 0.1000000000 0.1000000000 0.1000000000 0.1000000000 0.1000000000 0.1000000000 0.1000000000 0.1000000000 0.1000000000 0.1000000000 0.1000000000 0.1000000000 0.1000000000 0.1000000000 0.1000000000 0.1000000000 0.1000000000 0.1000000000 0.1000000000 0.1000000000 0.1000000000 0.1000000000 0.1000000000 0.1000000000 0.1000000000 0.1000000000 0.1000000000 0.1000000000 0.1000000000 0.1000000000 0.1000000000 0.1000000000 0.1000000000 0.1000000000 0.1000000000 0.1000000000 0.1000000000 0.1000000000 0.1000000000 0.1000000000 0.1000000000 0.1000000000 0.1000000000 0.1000000000 0.1000000000 0.1000000000 0.1000000000 0.1000000000 0.1000000000 0.1000000000 0.1000000000 0.1000000000 0.1000000000 0.1000000000 0.1000000000 0.1000000000 0.1000000000 0.1000000000 0.1000000000 0.1000000000 0.1000000000 0.1000000000 0.1000000000 0.1000000000 0.1000000000 0.1000000000 0.1000000000 0.1000000000 0.1000000000 0.1000000000 0.1000000000 0.1000000000 0.1000000000 0.1000000000 0.1000000000 0.1000000000 0.1000000000 0.1000000000 0.1000000000 0.1000000000 0.1000000000 0.1000000000 0.1000000000 0.1000000000 0.1000000000 0.1000000000 0.1000000000 0.1000000000 0.1000000000 0.1000000000 0.1000000000 0.1000000000 0.1000000000 0.1000000000 0.1000000000 0.1000000000 0.1000000000 0.1000000000 0.1000000000 0.1000000000 0.1000000000 0.1000000000 0.1000000000 0.1000000000 0.1000000000 0.1000000000 0.1000000000 0.1000000000 0.1000000000 0.1000000000 0.1000000000 0.1000000000 0.1000000000 0.1000000000 0.1000000000 0.1000000000 0.1000000000 0.1000000000 0.1000000000 0.1000000000 0.1000000000 0.1000000000 0.1000000000 0.1000000000 0.1000000000 0.1000000000 0.1000000000 0.1000000000 0.1000000000 0.1000000000 0.1000000000 0.1000000000 0.1000000000 0.1000000000 0.1000000000 0.1000000000 0.1000000000 0.1000000000 0.1000000000 0.1000000000 0.1000000000 0.1000000000 0.1000000000 0.1000000000 0.1000000000 0.1000000000 0.1000000000 0.1000000000 0.1000000000 0.1000000000 0.1000000000 0.1000000000 0.1000000000 0.1000000000 0.1000000000 0.1000000000 0.1000000000 0.1000000000 0.1000000000 0.1000000000 0.1000000000 0.1000000000 0.1000000000 0.1000000000 0.1000000000 0.1000000000 0.1000000000 0.1000000000 0.1000000000 0.1000000000 0.1000000000 0.1000000000 0.1000000000 0.1000000000 0.1000000000 0.1000000000 0.1000000000 0.1000000000 0.1000000000 0.1000000000 0.1000000000 0.1000000000 0.1000000000 0.1000000000 0.1000000000 0.1000000000 0.1000000000 0.1000000000 0.1000000000 0.1000000000 0.1000000000 0.1000000000 0.1000000000 0.1000000000 0.1000000000 0.1000000000 0.1000000000 0.1000000000 0.1000000000 0.1000000000 0.1000000000 0.1000000000 0.1000000000 0.1000000000 0.1000000000 0.1000000000 0.1000000000 0.1000000000 0.1000000000 0.1000000000 0.1000000000 0.1000000000 0.1000000000 0.1000000000 0.1000000000 0.1000000000 0.1000000000 0.1000000000 0.1000000000 0.1000000000 0.1000000000 0.1000000000 0.1000000000 0.1000000000 0.1000000000 0.1000000000 0.1000000000 0.1000000000 0.1000000000 0.1000000000 0.1000000000 0.1000000000 0.1000000000 0.1000000000 0.1000000000 0.1000000000 0.1000000000 0.1000000000 0.1000000000 0.1000000000 0.1000000000 0.1000000000 0.1000000000 0.1000000000 0.1000000000 0.1000000000 0.1000000000 0.1000000000 0.1000000000 0.1000000000 0.1000000000 0.1000000000 0.1000000000 0.1000000000 0.1000000000 0.1000000000 0.1000000000 0.1000000000 0.1000000000 0.1000000000 0.1000000000 0.1000000000 0.1000000000 0.1000000000 0.1000000000 0.1000000000 0.1000000000 0.1000000000 0.1000000000 0.1000000000 0.1000000000 0.1000000000 0.1000000000 0.1000000000 0.1000000000 0.1000000000 0.1000000000 0.1000000000 0.1000000000 0.1000000000 0.1000000000 0.1000000000 0.1000000000 0.1000000000 0.1000000000 0.1000000000 0.1000000000 0.1000000000 0.1000000000 0.1000000000 0.1000000000 0.1000000000 0.1000000000 0.1000000000 0.1000000000 0.1000000000 0.1000000000 0.1000000000 0.1000000000 0.1000000000 0.1000000000 0.1000000000 0.1000000000 0.1000000000 0.1000000000 0.1000000000 0.1000000000 0.1000000000 0.1000000000 0.1000000000 0.1000000000 0.1000000000 0.1000000000 0.1000000000 0.1000000000 0.1000000000 0.1000000000 0.1000000000 0.1000000000 0.1000000000 0.1000000000 0.1000000000 0.1000000000 0.1000000000 0.1000000000 0.1000000000 0.1000000000 0.1000000000 0.1000000000 0.1000000000 0.1000000000 0.1000000000 0.1000000000 0.1000000000 0.1000000000 0.1000000000 0.1000000000 0.1000000000 0.1000000000 0.1000000000 0.1000000000 0.1000000000 0.1000000000 0.1000000000 0.1000000000 0.1000000000 0.1000000000 0.1000000000 0.1000000000 0.1000000000 0.1000000000 0.1000000000 0.1000000000 0.1000000000 0.1000000000 0.1000000000 0.1000000000 0.1000000000 0.1000000000 0.1000000000 0.1000000000 0.1000000000 0.1000000000 0.1000000000 0.1000000000 0.1000000000 0.1000000000 0.1000000000 0.1000000000 0.1000000000 0.1000000000 0.1000000000 0.1000000000 0.1000000000 0.1000000000 0.1000000000 0.1000000000 0.1000000000 0.1000000000 0.1000000000 0.1000000000 0.1000000000 0.1000000000 0.1000000000 0.1000000000 0.1000000000 0.1000000000 0.1000000000 0.1000000000 0.1000000000 0.1000000000 0.1000000000 0.1000000000 0.1000000000 0.1000000000 0.1000000000 0.1000000000 0.1000000000 0.1000000000 0.1000000000 0.1000000000 0.1000000000 0.1000000000 0.1000000000 0.1000000000 0.1000000000 0.1000000000 0.1000000000 0.1000000000 0.1000000000 0.1000000000 0.1000000000 0.1000000000 0.1000000000 0.1000000000 0.1000000000 0.1000000000 0.1000000000 0.1000000000 0.1000000000 0.1000000000 0.1000000000 0.1000000000 0.1000000000 0.1000000000 0.1000000000 0.1000000000 0.1000000000 0.1000000000 0.1000000000 0.1000000000 0.1000000000 0.1000000000 0.1000000000 0.1000000000 0.1000000000 0.1000000000 0.1000000000 0.1000000000 0.1000000000 0.1000000000 0.1000000000 0.1000000000 0.1000000000 0.1000000000 0.1000000000 0.1000000000 0.1000000000 0.1000000000 0.1000000000 0.1000000000 0.1000000000 0.1000000000 0.1000000000 0.1000000000 0.1000000000 0.1000000000 0.1000000000 0.1000000000 0.1000000000 0.1000000000 0.1000000000 0.1000000000 0.1000000000 0.1000000000 0.1000000000 0.1000000000 0.1000000000 0.1000000000 0.1000000000 0.1000000000 0.1000000000 0.1000000000 0.1000000000 0.1000000000 0.1000000000 0.1000000000 0.1000000000 0.1000000000 0.1000000000 0.1000000000 0.1000000000 0.1000000000 0.1000000000 0.1000000000 0.1000000000 0.1000000000 0.1000000000 0.1000000000 0.1000000000 0.1000000000 0.1000000000 0.1000000000 0.1000000000 0.1000000000 0.1000000000 0.1000000000 0.1000000000 0.1000000000 0.1000000000 0.1000000000 0.1000000000 0.1000000000 0.1000000000 0.1000000000 0.1000000000 0.1000000000 0.1000000000 0.1000000000 0.1000000000 0.1000000000 0.1000000000 0.1000000000 0.1000000000 0.1000000000 0.1000000000 0.1000000000 0.1000000000 0.1000000000 0.1000000000 0.1000000000 0.1000000000 0.1000000000 0.1000000000 0.1000000000 0.1000000000 0.1000000000 0.1000000000 0.1000000000 0.1000000000 0.1000000000 0.1000000000 0.1000000000 0.1000000000 0.1000000000 0.1000000000 0.1000000000 0.1000000000 0.1000000000 0.1000000000 0.1000000000 0.1000000000 0.1000000000 0.1000000000 0.1000000000 0.1000000000 0.1000000000 0.1000000000 0.1000000000 0.1000000000 0.1000000000 0.1000000000 0.1000000000 0.1000000000 0.1000000000 0.1000000000 0.1000000000 0.1000000000 0.1000000000 0.1000000000 0.1000000000 0.1000000000 0.1000000000 0.1000000000 0.1000000000 0.1000000000 0.1000000000 0.1000000000 0.1000000000 0.1000000000 0.1000000000 0.1000000000 0.1000000000 0.1000000000 0.1000000000 0.1000000000 0.1000000000 0.1000000000 0.1000000000 0.1000000000 0.1000000000 0.1000000000 0.1000000000 0.1000000000 0.1000000000 0.1000000000 0.1000000000 0.1000000000 0.1000000000 0.1000000000 0.1000000000 0.1000000000 0.1000000000 0.1000000000 0.1000000000 0.1000000000 0.1000000000 0.1000000000 0.1000000000 0.1000000000 0.1000000000 0.1000000000 0.1000000000 0.1000000000 0.1000000000 0.1000000000 0.1000000000 0.1000000000 0.1000000000 0.1000000000 0.1000000000 0.1000000000 0.1000000000 0.1000000000 0.1000000000 0.1000000000 0.1000000000 0.1000000000 0.1000000000 0.1000000000 0.1000000000 0.1000000000 0.1000000000 0.1000000000 0.1000000000 0.1000000000 0.1000000000 0.1000000000 0.1000000000 0.1000000000 0.1000000000 0.1000000000 0.1000000000 0.1000000000 0.1000000000 0.1000000000 0.1000000000 0.1000000000 0.1000000000 0.1000000000 0.1000000000 0.1000000000 0.1000000000 0.1000000000 0.1000000000 0.1000000000 0.1000000000 0.1000000000 0.1000000000 0.1000000000 0.1000000000 0.1000000000 0.1000000000 0.1000000000 0.1000000000 0.1000000000 0.1000000000 0.1000000000 0.1000000000 0.1000000000 0.1000000000 0.1000000000 0.1000000000 0.1000000000 0.1000000000 0.1000000000 0.1000000000 0.1000000000 0.1000000000 0.1000000000 0.1000000000 0.1000000000 0.1000000000 0.1000000000 0.1000000000 0.1000000000 0.10000000