<?xml version="1.0"?>
<VTKFile type="UnstructuredGrid" version="0.1" byte_order="LittleEndian">
  <UnstructuredGrid>
    <FieldData>
      <DataArray type="Float32" Name="TIME"  NumberOfTuples="1" format="ascii"> 0.4500000000 </DataArray>
      <DataArray type="Int32"   Name="STEP"  NumberOfTuples="1" format="ascii"> 112500 </DataArray>
    </FieldData>
    <Piece NumberOfPoints="11600" NumberOfCells="11600">
      <Points>
        <DataArray type="Float32" NumberOfComponents="3" format="ascii">
 -0.0721194504 -0.1657053567 0.0000000000 0.1278774166 -0.1645874695 0.0000000000 0.3278742874 -0.1634696253 0.0000000000 0.5278711644 -0.1623518136 0.0000000000 0.7278680547 -0.1612339725 0.0000000000 0.9278649554 -0.1601161151 0.0000000000 1.1278618546 -0.1589982238 0.0000000000 1.3278587403 -0.1578803220 0.0000000000 1.5278556085 -0.1567624448 0.0000000000 1.7278524829 -0.1556445967 0.0000000000 1.9278493566 -0.1545267647 0.0000000000 2.1278462267 -0.1534089481 0.0000000000 2.3278430908 -0.1522911532 0.0000000000 2.5278399277 -0.1511734029 0.0000000000 2.7278367853 -0.1500556983 0.0000000000 2.9278336482 -0.1489380215 0.0000000000 3.1278305171 -0.1478203526 0.0000000000 3.3278273882 -0.1467026789 0.0000000000 3.5278242457 -0.1455850151 0.0000000000 3.7278211126 -0.1444673731 0.0000000000 3.9278179788 -0.1433497492 0.0000000000 4.1278148464 -0.1422321401 0.0000000000 4.3278117152 -0.1411145428 0.0000000000 4.5278085726 -0.1399969481 0.0000000000 4.7278054326 -0.1388793329 0.0000000000 4.9278022793 -0.1377616969 0.0000000000 5.1277991103 -0.1366440483 0.0000000000 5.3277959262 -0.1355263918 0.0000000000 5.5277926586 -0.1344087593 0.0000000000 5.7277894436 -0.1332911728 0.0000000000 5.9277862288 -0.1321736249 0.0000000000 6.1277830236 -0.1310560969 0.0000000000 6.3277798287 -0.1299385672 0.0000000000 6.5277765842 -0.1288210310 0.0000000000 6.7277733973 -0.1277034962 0.0000000000 6.9277702167 -0.1265859587 0.0000000000 7.1277670491 -0.1254684130 0.0000000000 7.3277638960 -0.1243508472 0.0000000000 7.5277607408 -0.1232332498 0.0000000000 7.7277576142 -0.1221156164 0.0000000000 7.9277544960 -0.1209979344 0.0000000000 8.1277513803 -0.1198802054 0.0000000000 8.3277482612 -0.1187624399 0.0000000000 8.5277451361 -0.1176446122 0.0000000000 8.7277419981 -0.1165267638 0.0000000000 8.9277388468 -0.1154089016 0.0000000000 9.1277356839 -0.1142910156 0.0000000000 9.3277325092 -0.1131731016 0.0000000000 9.5277292667 -0.1120551688 0.0000000000 9.7277260602 -0.1109372142 0.0000000000 9.9277228361 -0.1098192354 0.0000000000 10.1277195988 -0.1087012357 0.0000000000 10.3277163507 -0.1075832021 0.0000000000 10.5277129655 -0.1064651550 0.0000000000 10.7277096686 -0.1053471254 0.0000000000 10.9277063496 -0.1042291220 0.0000000000 11.1277030196 -0.1031111494 0.0000000000 11.3276996884 -0.1019931986 0.0000000000 11.5276961893 -0.1008752897 0.0000000000 11.7276928398 -0.0997573993 0.0000000000 11.9276894832 -0.0986395188 0.0000000000 12.1276861332 -0.0975216437 0.0000000000 12.3276828041 -0.0964037692 0.0000000000 12.5276793667 -0.0952858997 0.0000000000 12.7276760954 -0.0941680224 0.0000000000 12.9276727529 -0.0930501333 0.0000000000 13.1276694811 -0.0919322178 0.0000000000 13.3276662064 -0.0908143215 0.0000000000 13.5276628724 -0.0896965034 0.0000000000 13.7276596858 -0.0885787582 0.0000000000 13.9276570343 -0.0874605232 0.0000000000 14.1294224868 -0.0869126763 0.0000000000 14.3294224842 -0.0868957574 0.0000000000 14.5294224779 -0.0868788389 0.0000000000 14.7294224745 -0.0868619217 0.0000000000 14.9294224646 -0.0868450088 0.0000000000 15.1294224590 -0.0868280987 0.0000000000 15.3294224535 -0.0868111919 0.0000000000 15.5294224443 -0.0867942879 0.0000000000 15.7294224404 -0.0867773869 0.0000000000 15.9294224331 -0.0867604891 0.0000000000 16.1294224303 -0.0867435946 0.0000000000 16.3294224288 -0.0867267017 0.0000000000 16.5435410006 -0.0674853317 0.0000000000 16.7435389691 -0.0665845296 0.0000000000 16.9435369201 -0.0656837172 0.0000000000 17.1435348694 -0.0647829117 0.0000000000 17.3435328032 -0.0638821545 0.0000000000 17.5435307454 -0.0629814450 0.0000000000 17.7435286953 -0.0620807305 0.0000000000 17.9435266757 -0.0611800288 0.0000000000 18.1435246836 -0.0602793016 0.0000000000 18.3435227042 -0.0593785162 0.0000000000 18.5435207188 -0.0584776321 0.0000000000 18.7435187188 -0.0575766837 0.0000000000 18.9435166978 -0.0566756880 0.0000000000 19.1435146579 -0.0557747057 0.0000000000 19.3435126042 -0.0548737403 0.0000000000 19.5435105444 -0.0539728086 0.0000000000 19.7435084927 -0.0530719268 0.0000000000 0.0269108603 0.0080559838 0.0000000000 0.2269077380 0.0091738461 0.0000000000 0.4269046223 0.0102916726 0.0000000000 0.6269015067 0.0114094932 0.0000000000 0.8268983951 0.0125273356 0.0000000000 1.0268952858 0.0136452043 0.0000000000 1.2268921766 0.0147631009 0.0000000000 1.4268890708 0.0158809923 0.0000000000 1.6268859655 0.0169988510 0.0000000000 1.8268828558 0.0181166908 0.0000000000 2.0268797449 0.0192345179 0.0000000000 2.2268766312 0.0203523255 0.0000000000 2.4268735167 0.0214701062 0.0000000000 2.6268703979 0.0225878313 0.0000000000 2.8268672746 0.0237055214 0.0000000000 3.0268641508 0.0248231937 0.0000000000 3.2268610264 0.0259408662 0.0000000000 3.4268579027 0.0270585360 0.0000000000 3.6268547795 0.0281761857 0.0000000000 3.8268516559 0.0292938177 0.0000000000 4.0268485314 0.0304114340 0.0000000000 4.2268454034 0.0315290389 0.0000000000 4.4268422674 0.0326466384 0.0000000000 4.6268391205 0.0337642467 0.0000000000 4.8268359630 0.0348818748 0.0000000000 5.0268327929 0.0359995193 0.0000000000 5.2268296094 0.0371171728 0.0000000000 5.4268264091 0.0382348236 0.0000000000 5.6268232028 0.0393524321 0.0000000000 5.8268199996 0.0404700004 0.0000000000 6.0268167975 0.0415875391 0.0000000000 6.2268135945 0.0427050681 0.0000000000 6.4268103846 0.0438226021 0.0000000000 6.6268071782 0.0449401345 0.0000000000 6.8268039843 0.0460576680 0.0000000000 7.0268007998 0.0471752072 0.0000000000 7.2267976230 0.0482927616 0.0000000000 7.4267944522 0.0494103434 0.0000000000 7.6267912897 0.0505279614 0.0000000000 7.8267881364 0.0516456178 0.0000000000 8.0267849871 0.0527633229 0.0000000000 8.2267818374 0.0538810718 0.0000000000 8.4267786805 0.0549988659 0.0000000000 8.6267755178 0.0561167050 0.0000000000 8.8267723504 0.0572345599 0.0000000000 9.0267691720 0.0583524362 0.0000000000 9.2267659768 0.0594703381 0.0000000000 9.4267627584 0.0605882642 0.0000000000 9.6267595249 0.0617062125 0.0000000000 9.8267562844 0.0628241820 0.0000000000 10.0267530311 0.0639421734 0.0000000000 10.2267497588 0.0650601922 0.0000000000 10.4267464545 0.0661782417 0.0000000000 10.6267431381 0.0672962827 0.0000000000 10.8267398250 0.0684142968 0.0000000000 11.0267365042 0.0695322847 0.0000000000 11.2267331664 0.0706502488 0.0000000000 11.4267297917 0.0717681882 0.0000000000 11.6267264075 0.0728860828 0.0000000000 11.8267230455 0.0740039667 0.0000000000 12.0267196895 0.0751218430 0.0000000000 12.2267163362 0.0762397151 0.0000000000 12.4267129730 0.0773575880 0.0000000000 12.6267096249 0.0784754496 0.0000000000 12.8267063079 0.0795933238 0.0000000000 13.0267030072 0.0807112194 0.0000000000 13.2266997357 0.0818291223 0.0000000000 13.4266964839 0.0829469738 0.0000000000 13.6266932579 0.0840647490 0.0000000000 13.8266900664 0.0851825738 0.0000000000 14.0294078352 0.0862839415 0.0000000000 14.2294078342 0.0863008622 0.0000000000 14.4294078313 0.0863177820 0.0000000000 14.6294078275 0.0863346995 0.0000000000 14.8294078231 0.0863516151 0.0000000000 15.0294078183 0.0863685263 0.0000000000 15.2294078139 0.0863854346 0.0000000000 15.4294078094 0.0864023406 0.0000000000 15.6294078056 0.0864192421 0.0000000000 15.8294078022 0.0864361421 0.0000000000 16.0294078001 0.0864530382 0.0000000000 16.2294077963 0.0864699293 0.0000000000 16.4427618716 0.1052675950 0.0000000000 16.6427598383 0.1061684056 0.0000000000 16.8427578008 0.1070692107 0.0000000000 17.0427557611 0.1079700227 0.0000000000 17.2427537182 0.1088708093 0.0000000000 17.4427516709 0.1097715459 0.0000000000 17.6427496248 0.1106722596 0.0000000000 17.8427475826 0.1115729649 0.0000000000 18.0427455622 0.1124736807 0.0000000000 18.2427435447 0.1133744331 0.0000000000 18.4427415249 0.1142752646 0.0000000000 18.6427395042 0.1151761751 0.0000000000 18.8427374744 0.1160771479 0.0000000000 19.0427354440 0.1169781394 0.0000000000 19.2427334058 0.1178791173 0.0000000000 19.4427313630 0.1187800717 0.0000000000 19.6427293179 0.1196809768 0.0000000000 19.8427272742 0.1205818441 0.0000000000 -0.0740556920 0.1806994567 0.0000000000 0.1259411788 0.1818173297 0.0000000000 0.3259380625 0.1829351708 0.0000000000 0.5259349542 0.1840529809 0.0000000000 0.7259318386 0.1851708076 0.0000000000 0.9259287264 0.1862886546 0.0000000000 1.1259256166 0.1874065297 0.0000000000 1.3259225081 0.1885244155 0.0000000000 1.5259194380 0.1896422905 0.0000000000 1.7259163418 0.1907601368 0.0000000000 1.9259132487 0.1918779724 0.0000000000 2.1259101563 0.1929957904 0.0000000000 2.3259070609 0.1941135864 0.0000000000 2.5259039931 0.1952313481 0.0000000000 2.7259008888 0.1963490577 0.0000000000 2.9258977787 0.1974667414 0.0000000000 3.1258946657 0.1985844148 0.0000000000 3.3258915505 0.1997020837 0.0000000000 3.5258884426 0.2008197440 0.0000000000 3.7258853277 0.2019373816 0.0000000000 3.9258822101 0.2030550051 0.0000000000 4.1258790882 0.2041726172 0.0000000000 4.3258759600 0.2052902245 0.0000000000 4.5258728092 0.2064078360 0.0000000000 4.7258696570 0.2075254584 0.0000000000 4.9258664925 0.2086430955 0.0000000000 5.1258633195 0.2097607435 0.0000000000 5.3258601444 0.2108783918 0.0000000000 5.5258569343 0.2119960189 0.0000000000 5.7258537501 0.2131136119 0.0000000000 5.9258505577 0.2142311703 0.0000000000 6.1258473631 0.2153487054 0.0000000000 6.3258441706 0.2164662354 0.0000000000 6.5258409402 0.2175837746 0.0000000000 6.7258377505 0.2187013060 0.0000000000 6.9258345611 0.2198188418 0.0000000000 7.1258313759 0.2209363892 0.0000000000 7.3258281988 0.2220539555 0.0000000000 7.5258249959 0.
[...]
      <PointData Scalars="radius">
        <DataArray type="Float32" Name="radius" format="ascii">
 0.1000000000 0.1000000000 0.1000000000 0.1000000000 0.1000000000 0.1000000000 0.1000000000 0.1000000000 0.1000000000 0.1000000000 0.1000000000 0.1000000000 0.1000000000 0.1000000000 0.1000000000 0.1000000000 0.1000000000 0.1000000000 0.1000000000 0.1000000000 0.1000000000 0.1000000000 0.1000000000 0.1000000000 0.1000000000 0.1000000000 0.1000000000 0.1000000000 0.1000000000 0.1000000000 0.1000000000 0.1000000000 0.1000000000 0.1000000000 0.1000000000 0.1000000000 0.1000000000 0.1000000000 0.1000000000 0.1000000000 0.1000000000 0.1000000000 0.1000000000 0.1000000000 0.1000000000 0.1000000000 0.1000000000 0.1000000000 0.1000000000 0.1000000000 0.1000000000 0.1000000000 0.1000000000 0.1000000000 0.1000000000 0.1000000000 0.1000000000 0.1000000000 0.1000000000 0.1000000000 0.1000000000 0.1000000000 0.1000000000 0.1000000000 0.1000000000 0.1000000000 0.1000000000 0.1000000000 0.1000000000 0.1000000000 0.1000000000 0.1000000000 0.1000000000 0.1000000000 0.1000000000 0.1000000000 0.1000000000 0.1000000000 0.1000000000 0.1000000000 0.1000000000 0.1000000000 0.1000000000 0.1000000000 0.1000000000 0.1000000000 0.1000000000 0.1000000000 0.1000000000 0.1000000000 0.1000000000 0.1000000000 0.1000000000 0.1000000000 0.1000000000 0.1000000000 0.1000000000 0.1000000000 0.1000000000 0.1000000000 0.1000000000 0.1000000000 0.1000000000 0.1000000000 0.1000000000 0.1000000000 0.1000000000 0.1000000000 0.1000000000 0.1000000000 0.1000000000 0.1000000000 0.1000000000 0.1000000000 0.1000000000 0.1000000000 0.1000000000 0.1000000000 0.1000000000 0.1000000000 0.1000000000 0.1000000000 0.1000000000 0.1000000000 0.1000000000 0.1000000000 0.1000000000 0.1000000000 0.1000000000 0.1000000000 0.1000000000 0.1000000000 0.1000000000 0.1000000000 0.1000000000 0.1000000000 0.1000000000 0.1000000000 0.1000000000 0.1000000000 0.1000000000 0.1000000000 0.1000000000 0.1000000000 0.1000000000 0.1000000000 0.1000000000 0.1000000000 0.1000000000 0.1000000000 0.1000000000 0.1000000000 0.1000000000 0.1000000000 0.1000000000 0.1000000000 0.1000000000 0.1000000000 0.1000000000 0.1000000000 0.1000000000 0.1000000000 0.1000000000 0.1000000000 0.1000000000 0.1000000000 0.1000000000 0.1000000000 0.1000000000 0.1000000000 0.1000000000 0.1000000000 0.1000000000 0.1000000000 0.1000000000 0.1000000000 0.1000000000 0.1000000000 0.1000000000 0.1000000000 0.1000000000 0.1000000000 0.1000000000 0.1000000000 0.1000000000 0.1000000000 0.1000000000 0.1000000000 0.1000000000 0.1000000000 0.1000000000 0.1000000000 0.1000000000 0.1000000000 0.1000000000 0.1000000000 0.1000000000 0.1000000000 0.1000000000 0.1000000000 0.1000000000 0.1000000000 0.1000000000 0.1000000000 0.1000000000 0.1000000000 0.1000000000 0.1000000000 0.1000000000 0.1000000000 0.1000000000 0.1000000000 0.1000000000 0.1000000000 0.1000000000 0.1000000000 0.1000000000 0.1000000000 0.1000000000 0.1000000000 0.1000000000 0.1000000000 0.1000000000 0.1000000000 0.1000000000 0.1000000000 0.1000000000 0.1000000000 0.1000000000 0.1000000000 0.1000000000 0.1000000000 0.1000000000 0.1000000000 0.1000000000 0.1000000000 0.1000000000 0.1000000000 0.1000000000 0.1000000000 0.1000000000 0.1000000000 0.1000000000 0.1000000000 0.1000000000 0.1000000000 0.1000000000 0.1000000000 0.1000000000 0.1000000000 0.1000000000 0.1000000000 0.1000000000 0.1000000000 0.1000000000 0.1000000000 0.1000000000 0.1000000000 0.1000000000 0.1000000000 0.1000000000 0.1000000000 0.1000000000 0.1000000000 0.1000000000 0.1000000000 0.1000000000 0.1000000000 0.1000000000 0.1000000000 0.1000000000 0.1000000000 0.1000000000 0.1000000000 0.1000000000 0.1000000000 0.1000000000 0.1000000000 0.1000000000 0.1000000000 0.1000000000 0.1000000000 0.1000000000 0.1000000000 0.1000000000 0.1000000000 0.1000000000 0.1000000000 0.1000000000 0.1000000000 0.1000000000 0.1000000000 0.1000000000 0.1000000000 0.1000000000 0.1000000000 0.1000000000 0.1000000000 0.1000000000 0.1000000000 0.1000000000 0.1000000000 0.1000000000 0.1000000000 0.1000000000 0.1000000000 0.1000000000 0.1000000000 0.1000000000 0.1000000000 0.1000000000 0.1000000000 0.1000000000 0.1000000000 0.1000000000 0.1000000000 0.1000000000 0.1000000000 0.1000000000 0.1000000000 0.1000000000 0.1000000000 0.1000000000 0.1000000000 0.1000000000 0.1000000000 0.1000000000 0.1000000000 0.1000000000 0.1000000000 0.1000000000 0.1000000000 0.1000000000 0.1000000000 0.1000000000 0.1000000000 0.1000000000 0.1000000000 0.1000000000 0.1000000000 0.1000000000 0.1000000000 0.1000000000 0.1000000000 0.1000000000 0.1000000000 0.1000000000 0.1000000000 0.1000000000 0.1000000000 0.1000000000 0.1000000000 0.1000000000 0.1000000000 0.1000000000 0.1000000000 0.1000000000 0.1000000000 0.1000000000 0.1000000000 0.1000000000 0.1000000000 0.1000000000 0.1000000000 0.1000000000 0.1000000000 0.1000000000 0.1000000000 0.1000000000 0.1000000000 0.1000000000 0.1000000000 0.1000000000 0.1000000000 0.1000000000 0.1000000000 0.1000000000 0.1000000000 0.1000000000 0.1000000000 0.1000000000 0.1000000000 0.1000000000 0.1000000000 0.1000000000 0.1000000000 0.1000000000 0.1000000000 0.1000000000 0.1000000000 0.1000000000 0.1000000000 0.1000000000 0.1000000000 0.1000000000 0.1000000000 0.1000000000 0.1000000000 0.1000000000 0.1000000000 0.1000000000 0.1000000000 0.1000000000 0.1000000000 0.1000000000 0.1000000000 0.1000000000 0.1000000000 0.1000000000 0.1000000000 0.1000000000 0.1000000000 0.1000000000 0.1000000000 0.1000000000 0.1000000000 0.1000000000 0.1000000000 0.1000000000 0.1000000000 0.1000000000 0.1000000000 0.1000000000 0.1000000000 0.1000000000 0.1000000000 0.1000000000 0.1000000000 0.1000000000 0.1000000000 0.1000000000 0.1000000000 0.1000000000 0.1000000000 0.1000000000 0.1000000000 0.1000000000 0.1000000000 0.1000000000 0.1000000000 0.1000000000 0.1000000000 0.1000000000 0.1000000000 0.1000000000 0.1000000000 0.1000000000 0.1000000000 0.1000000000 0.1000000000 0.1000000000 0.1000000000 0.1000000000 0.1000000000 0.1000000000 0.1000000000 0.1000000000 0.1000000000 0.1000000000 0.1000000000 0.1000000000 0.1000000000 0.1000000000 0.1000000000 0.1000000000 0.1000000000 0.1000000000 0.1000000000 0.1000000000 0.1000000000 0.1000000000 0.1000000000 0.1000000000 0.1000000000 0.1000000000 0.1000000000 0.1000000000 0.1000000000 0.1000000000 0.1000000000 0.1000000000 0.1000000000 0.1000000000 0.1000000000 0.1000000000 0.1000000000 0.1000000000 0.1000000000 0.1000000000 0.1000000000 0.1000000000 0.1000000000 0.1000000000 0.1000000000 0.1000000000 0.1000000000 0.1000000000 0.1000000000 0.1000000000 0.1000000000 0.1000000000 0.1000000000 0.1000000000 0.1000000000 0.1000000000 0.1000000000 0.1000000000 0.1000000000 0.1000000000 0.1000000000 0.1000000000 0.1000000000 0.1000000000 0.1000000000 0.1000000000 0.1000000000 0.1000000000 0.1000000000 0.1000000000 0.1000000000 0.1000000000 0.1000000000 0.1000000000 0.1000000000 0.1000000000 0.1000000000 0.1000000000 0.1000000000 0.1000000000 0.1000000000 0.1000000000 0.1000000000 0.1000000000 0.1000000000 0.1000000000 0.1000000000 0.1000000000 0.1000000000 0.1000000000 0.1000000000 0.1000000000 0.1000000000 0.1000000000 0.1000000000 0.1000000000 0.1000000000 0.1000000000 0.1000000000 0.1000000000 0.1000000000 0.1000000000 0.1000000000 0.1000000000 0.1000000000 0.1000000000 0.1000000000 0.1000000000 0.1000000000 0.1000000000 0.1000000000 0.1000000000 0.1000000000 0.1000000000 0.1000000000 0.1000000000 0.1000000000 0.1000000000 0.1000000000 0.1000000000 0.1000000000 0.1000000000 0.1000000000 0.1000000000 0.1000000000 0.1000000000 0.1000000000 0.1000000000 0.1000000000 0.1000000000 0.1000000000 0.1000000000 0.1000000000 0.1000000000 0.1000000000 0.1000000000 0.1000000000 0.1000000000 0.1000000000 0.1000000000 0.1000000000 0.1000000000 0.1000000000 0.1000000000 0.1000000000 0.1000000000 0.1000000000 0.1000000000 0.1000000000 0.1000000000 0.1000000000 0.1000000000 0.1000000000 0.1000000000 0.1000000000 0.1000000000 0.1000000000 0.1000000000 0.1000000000 0.1000000000 0.1000000000 0.1000000000 0.1000000000 0.1000000000 0.1000000000 0.1000000000 0.1000000000 0.1000000000 0.1000000000 0.1000000000 0.1000000000 0.1000000000 0.1000000000 0.1000000000 0.1000000000 0.1000000000 0.1000000000 0.1000000000 0.1000000000 0.1000000000 0.1000000000 0.1000000000 0.1000000000 0.1000000000 0.1000000000 0.1000000000 0.1000000000 0.1000000000 0.1000000000 0.1000000000 0.1000000000 0.1000000000 0.1000000000 0.1000000000 0.1000000000 0.1000000000 0.1000000000 0.1000000000 0.1000000000 0.1000000000 0.1000000000 0.1000000000 0.1000000000 0.1000000000 0.1000000000 0.1000000000 0.1000000000 0.1000000000 0.1000000000 0.1000000000 0.1000000000 0.1000000000 0.1000000000 0.1000000000 0.1000000000 0.1000000000 0.1000000000 0.1000000000 0.1000000000 0.1000000000 0.1000000000 0.1000000000 0.1000000000 0.1000000000 0.1000000000 0.1000000000 0.1000000000 0.1000000000 0.1000000000 0.1000000000 0.1000000000 0.1000000000 0.1000000000 0.1000000000 0.1000000000 0.1000000000 0.1000000000 0.1000000000 0.1000000000 0.1000000000 0.1000000000 0.1000000000 0.1000000000 0.1000000000 0.1000000000 0.1000000000 0.1000000000 0.1000000000 0.1000000000 0.1000000000 0.1000000000 0.1000000000 0.1000000000 0.1000000000 0.1000000000 0.1000000000 0.1000000000 0.1000000000 0.1000000000 0.1000000000 0.1000000000 0.1000000000 0.1000000000 0.1000000000 0.1000000000 0.1000000000 0.1000000000 0.1000000000 0.1000000000 0.1000000000 0.1000000000 0.1000000000 0.1000000000 0.1000000000 0.1000000000 0.1000000000 0.1000000000 0.1000000000 0.1000000000 0.1000000000 0.1000000000 0.1000000000 0.1000000000 0.1000000000 0.1000000000 0.1000000000 0.1000000000 0.1000000000 0.1000000000 0.1000000000 0.1000000000 0.1000000000 0.1000000000 0.1000000000 0.1000000000 0.1000000000 0.1000000000 0.1000000000 0.1000000000 0.1000000000 0.1000000000 0.1000000000 0.1000000000 0.1000000000 0.1000000000 0.1000000000 0.1000000000 0.1000000000 0.1000000000 0.1000000000 0.1000000000 0.1000000000 0.1000000000 0.1000000000 0.1000000000 0.1000000000 0.1000000000 0.1000000000 0.1000000000 0.1000000000 0.1000000000 0.1000000000 0.1000000000 0.1000000000 0.1000000000 0.1000000000 0.1000000000 0.1000000000 0.1000000000 0.1000000000 0.1000000000 0.1000000000 0.1000000000 0.1000000000 0.1000000000 0.1000000000 0.1000000000 0.1000000000 0.1000000000 0.1000000000 0.1000000000 0.1000000000 0.1000000000 0.1000000000 0.1000000000 0.1000000000 0.1000000000 0.1000000000 0.1000000000 0.1000000000 0.1000000000 0.1000000000 0.1000000000 0.1000000000 0.1000000000 0.1000000000 0.1000000000 0.1000000000 0.1000000000 0.1000000000 0.1000000000 0.1000000000 0.1000000000 0.1000000000 0.1000000000 0.1000000000 0.1000000000 0.1000000000 0.1000000000 0.1000000000 0.1000000000 0.1000000000 0.1000000000 0.1000000000 0.1000000000 0.1000000000 0.1000000000 0.1000000000 0.1000000000 0.1000000000 0.1000000000 0.1000000000 0.1000000000 0.1000000000 0.1000000000 0.1000000000 0.1000000000 0.1000000000 0.1000000000 0.1000000000 0.1000000000 0.1000000000 0.1000000000 0.1000000000 0.1000000000 0.1000000000 0.1000000000 0.1000000000 0.1000000000 0.1000000000 0.1000000000 0.1000000000 0.1000000000 0.1000000000 0.1000000000 0.1000000000 0.1000000000 0.1000000000 0.1000000000 0.1000000000 0.1000000000 0.1000000000 0.1000000000 0.1000000000 0.1000000000 0.1000000000 0.1000000000 0.1000000000 0.1000000000 0.1000000000 0.1000000000 0.1000000000 0.1000000000 0.1000000000 0.1000000000 0.1000000000 0.1000000000 0.1000000000 0.1000000000 0.1000000000 0.1000000000 0.1000000000 0.1000000000 0.1000000000 0.1000000000 0.1000000000 0.1000000000 0.1000000000 0.1000000000 0.1000000000 0.1000000000 0.1000000000 0.1000000000 0.1000000000 0.1000000000 0.1000000000 0.1000000000 0.1000000000 0.1000000000 0.1000000000 0.1000000000 0.1000000000 0.1000000000 0.1000000000 0.1000000000 0.1000000000 0.1000000000 0.1000000000 0.1000000000 0.1000000000 0.1000000000 0.1000000000 0.1000000000 0.1000000000 0.1000000000 0.1000000000 0.1000000000 0.1000000000 0.1000000000 0.1000000000 0.1000000000 0.1000000000 0.1000000000 0.1000000000 0.1000000000 0.1000000000 0.1000000000 0.1000000000 0.1000000000 0.1000000000 0.1000000000 0.1000000000 0.1000000000 0.1000000000 0.1000000000 0.1000000000 0.1000000000 0.1000000000 0.1000000000 0.1000000000 0.1000000000 0.1000000000 0.1000000000 0.1000000000 0.1000000000 0.1000000000 0.1000000000 0.1000000000 0.1000000000 0.1000000000 0.1000000000 0.1000000000 0.1000000000 0.1000000000 0.1000000000 0.1000000000 0.1000000000 0.1000000000 0.1000000000 0.1000000000 0.1000000000 0.1000000000 0.1000000000 0.1000000000 0.1000000000 0.1000000000 0.1000000000 0.1000000000 0.1000000000 0.1000000000 0.1000000000 0.1000000000 0.1000000000 0.1000000000 0.1000000000 0.1000000000 0.1000000000 0.1000000000 0.1000000000 0.1000000000 0.1000000000 0.1000000000 0.1000000000 0.1000000000 0.1000000000 0.1000000000 0.1000000000 0.1000000000 0.1000000000 0.1000000000 0.1000000000 0.1000000000 0.1000000000 0.1000000000 0.1000000000 0.1000000000 0.1000000000 0.1000000000 0.1000000000 0.1000000000 0.1000000000 0.1000000000 0.1000000000 0.1000000000 0.1000000000 0.1000000000 0.1000000000 0.1000000000 0.1000000000 0.1000000000 0.1000000000 0.1000000000 0.1000000000 0.1000000000 0.1000000000 0.1000000000 0.1000000000 0.1000000000 0.1000000000 0.1000000000 0.1000000000 0.1000000000 0.1000000000 0.1000000000 0.1000000000 0.1000000000 0.1000000000 0.1000000000 0.1000000000 0.1000000000 0.1000000000 0.1000000000 0.1000000000 0.1000000000 0.1000000000 0.1000000000 0.1000000000 0.1000000000 0.1000000000 0.1000000000 0.1000000000 0.1000000000 0.1000000000 0.1000000000 0.1000000000 0.1000000000 0.1000000000 0.1000000000 0.1000000000 0.1000000000 0.1000000000 0.1000000000 0.1000000000 0.1000000000 0.1000000000 0.1000000000 0.1000000000 0.1000000000 0.1000000000 0.1000000000 0.1000000000 0.1000000000 0.1000000000 0.1000000000 0.1000000000 0.1000000000 0.1000000000 0.1000000000 0.1000000000 0.1000000000 0.1000000000 0.1000000000 0.1000000000 0.1000000000 0.1000000000 0.1000000000 0.1000000000 0.1000000000 0.1000000000 0.1000000000 0.1000000000 0.1000000000 0.1000000000 0.1000000000 0.1000000000 0.1000000000 0.1000000000 0.1000000000 0.1000000000 0.1000000000 0.1000000000 0.1000000000 0.1000000000 0.1000000000 0.1000000000 0.1000000000 0.1000000000 0.1000000000 0.1000000000 0.1000000000 0.1000000000 0.1000000000 0.1000000000 0.1000000000 0.1000000000 0.1000000000 0.1000000000 0.1000000000 0.1000000000 0.1000000000 0.1000000000 0.1000000000 0.1000000000 0.1000000000 0.1000000000 0.1000000000 0.1000000000 0.1000000000 0.1000000000 0.1000000000 0.1000000000 0.1000000000 0.1000000000 0.1000000000 0.1000000000 0.1000000000 0.1000000000 0.1000000000 0.1000000000 0.1000000000 0.1000000000 0.1000000000 0.1000000000 0.1000000000 0.1000000000 0.1000000000 0.1000000000 0.1000000000 0.1000000000 0.1000000000 0.1000000000 0.1000000000 0.1000000000 0.1000000000 0.1000000000 0.1000000000 0.1000000000 0.1000000000 0.1000000000 0.1000000000 0.1000000000 0.1000000000 0.1000000000 0.1000000000 0.1000000000 0.1000000000 0.1000000000 0.1000000000 0.1000000000 0.1000000000 0.1000000000 0.1000000000 0.1000000000 0.1000000000 0.1000000000 0.1000000000 0.1000000000 0.1000000000 0.1000000000 0.1000000000 0.1000000000 0.1000000000 0.1000000000 0.1000000000 0.1000000000 0.1000000000 0.1000000000 0.1000000000 0.1000000000 0.1000000000 0.1000000000 0.1000000000 0.1000000000 0.1000000000 0.1000000000 0.1000000000 0.1000000000 0.1000000000 0.1000000000 0.1000000000 0.1000000000 0.1000000000 0.1000000000 0.1000000000 0.1000000000 0.1000000000 0.1000000000 0.1000000000 0.1000000000 0.1000000000 0.1000000000 0.1000000000 0.1000000000 0.1000000000 0.1000000000 0.1000000000 0.1000000000 0.1000000000 0.1000000000 0.1000000000 0.1000000000 0.1000000000 0.1000000000 0.1000000000 0.1000000000 0.1000000000 0.1000000000 0.1000000000 0.1000000000 0.1000000000 0.1000000000 0.1000000000 0.1000000000 0.1000000000 0.1000000000 0.1000000000 0.1000000000 0.1000000000 0.1000000000 0.1000000000 0.1000000000 0.1000000000 0.1000000000 0.1000000000 0.1000000000 0.1000000000 0.1000000000 0.1000000000 0.1000000000 0.1000000000 0.1000000000 0.1000000000 0.1000000000 0.1000000000 0.1000000000 0.1000000000 0.1000000000 0.1000000000 0.1000000000 0.1000000000 0.1000000000 0.1000000000 0.1000000000 0.1000000000 0.1000000000 0.1000000000 0.1000000000 0.1000000000 0.1000000000 0.1000000000 0.1000000000 0.1000000000 0.1000000000 0.1000000000 0.1000000000 0.1000000000 0.1000000000 0.1000000000 0.1000000000 0.1000000000 0.1000000000 0.1000000000 0.1000000000 0.1000000000 0.1000000000 0.1000000000 0.1000000000 0.1000000000 0.1000000000 0.1000000000 0.1000000000 0.1000000000 0.1000000000 0.1000000000 0.1000000000 0.1000000000 0.1000000000 0.1000000000 0.1000000000 0.1000000000 0.1000000000 0.1000000000 0.1000000000 0.1000000000 0.1000000000 0.1000000000 0.1000000000 0.1000000000 0.1000000000 0.1000000000 0.1000000000 0.1000000000 0.1000000000 0.1000000000 0.1000000000 0.1000000000 0.1000000000 0.1000000000 0.1000000000 0.1000000000 0.1000000000 0.1000000000 0.1000000000 0.1000000000 0.1000000000 0.1000000000 0.1000000000 0.1000000000 0.1000000000 0.1000000000 0.1000000000 0.1000000000 0.1000000000 0.1000000000 0.1000000000 0.1000000000 0.1000000000 0.1000000000 0.1000000000 0.1000000000 0.1000000000 0.1000000000 0.1000000000 0.1000000000 0.1000000000 0.1000000000 0.1000000000 0.1000000000 0.1000000000 0.1000000000 0.1000000000 0.1000000000 0.1000000000 0.1000000000 0.1000000000 0.1000000000 0.1000000000 0.1000000000 0.1000000000 0.1000000000 0.1000000000 0.1000000000 0.1000000000 0.1000000000 0.1000000000 0.1000000000 0.1000000000 0.1000000000 0.1000000000 0.1000000000 0.1000000000 0.1000000000 0.1000000000 0.1000000000 0.1000000000 0.1000000000 0.1000000000 0.1000000000 0.1000000000 0.1000000000 0.1000000000 0.1000000000 0.1000000000 0.1000000000 0.1000000000 0.1000000000 0.1000000000 0.1000000000 0.1000000000 0.1000000000 0.1000000000 0.1000000000 0.1000000000 0.1000000000 0.1000000000 0.1000000000 0.1000000000 0.1000000000 0.1000000000 0.1000000000 0.1000000000 0.1000000000 0.1000000000 0.1000000000 0.1000000000 0.1000000000 0.1000000000 0.1000000000 0.1000000000 0.1000000000 0.1000000000 0.1000000000 0.1000000000 0.1000000000 0.1000000000 0.1000000000 0.1000000000 0.1000000000 0.1000000000 0.1000000000 0.1000000000 0.1000000000 0.1000000000 0.1000000000 0.1000000000 0.1000000000 0.1000000000 0.1000000000 0.1000000000 0.1000000000 0.1000000000 0.1000000000 0.1000000000 0.1000000000 0.1000000000 0.1000000000 0.1000000000 0.1000000000 0.1000000000 0.1000000000 0.1000000000 0.1000000000 0.1000000000 0.1000000000 0.1000000000 0.1000000000 0.1000000000 0.1000000000 0.1000000000 0.1000000000 0.1000000000 0.1000000000 0.1000000000 0.1000000000 0.1000000000 0.1000000000 0.1000000000 0.1000000000 0.1000000000 0.1000000000 0.1000000000 0.1000000000 0.1000000000 0.1000000000 0.1000000000 0.1000000000 0.1000000000 0.1000000000 0.1000000000 0.1000000000 0.1000000000 0.1000000000 0.1000000000 0.1000000000 0.1000000000 0.1000000000 0.1000000000 0.1000000000 0.1000000000 0.1000000000 0.1000000000 0.1000000000 0.1000000000 0.1000000000 0.1000000000 0.1000000000 0.1000000000 0.1000000000 0.1000000000 0.1000000000 0.1000000000 0.1000000000 0.1000000000 0.1000000000 0.1000000000 0.1000000000 0.1000000000 0.1000000000 0.1000000000 0.1000000000 0.1000000000 0.1000000000 0.1000000000 0.1000000000 0.1000000000 0.1000000000 0.1000000000 0.1000000000 0.1000000000 0.1000000000 0.1000000000 0.1000000000 0.1000000000 0.1000000000 0.1000000000 0.1000000000 0.1000000000 0.1000000000 0.1000000000 0.1000000000 0.1000000000 0.1000000000 0.1000000000 0.1000000000 0.1000000000 0.1000000000 0.1000000000 0.1000000000 0.1000000000 0.1000000000 0.1000000000 0.1000000000 0.1000000000 0.1000000000 0.1000000000 0.1000000000 0.1000000000 0.1000000000 0.1000000000 0.1000000000 0.1000000000 0.10000000