<?xml version="1.0"?>
<VTKFile type="UnstructuredGrid" version="0.1" byte_order="LittleEndian">
  <UnstructuredGrid>
    <FieldData>
      <DataArray type="Float32" Name="TIME"  NumberOfTuples="1" format="ascii"> 3.6000000000 </DataArray>
      <DataArray type="Int32"   Name="STEP"  NumberOfTuples="1" format="ascii"> 900000 </DataArray>
    </FieldData>
    <Piece NumberOfPoints="11600" NumberOfCells="11600">
      <Points>
        <DataArray type="Float32" NumberOfComponents="3" format="ascii">
 -0.6743473650 -1.1100165291 -0.0000000163 -0.4744270762 -1.1043705687 -0.0000000062 -0.2745067867 -1.0987246096 0.0000000053 -0.0745865059 -1.0930786517 0.0000000295 0.1253337783 -1.0874326945 0.0000000469 0.3252540588 -1.0817867394 0.0000000676 0.5251743374 -1.0761407867 0.0000000942 0.7250946156 -1.0704948367 0.0000001313 0.9250148801 -1.0648488915 0.0000001821 1.1249351558 -1.0592029483 0.0000002594 1.3248554290 -1.0535570084 0.0000003369 1.5247757014 -1.0479110725 0.0000004045 1.7246959744 -1.0422651398 0.0000004586 1.9246162312 -1.0366192112 0.0000004935 2.1245365029 -1.0309732843 0.0000005285 2.3244567722 -1.0253273596 0.0000005716 2.5243770402 -1.0196814372 0.0000006246 2.7242973085 -1.0140355167 0.0000006833 2.9242175550 -1.0083895993 0.0000007623 3.1241378207 -1.0027436845 0.0000008119 3.3240580840 -0.9970977724 0.0000008492 3.5239783472 -0.9914518629 0.0000008700 3.7238986122 -0.9858059544 0.0000008754 3.9238188550 -0.9801600482 0.0000008430 4.1237391198 -0.9745141434 0.0000008097 4.3236593831 -0.9688682393 0.0000007712 4.5235796461 -0.9632223364 0.0000007244 4.7234999107 -0.9575764346 0.0000006640 4.9234201528 -0.9519305343 0.0000005816 5.1233404175 -0.9462846341 0.0000004804 5.3232606802 -0.9406387345 0.0000003809 5.5231809428 -0.9349928363 0.0000002953 5.7231012074 -0.9293469384 0.0000002304 5.9230214502 -0.9237010413 0.0000001777 6.1229417158 -0.9180551437 0.0000001495 6.3228619802 -0.9124092455 0.0000001071 6.5227822449 -0.9067633479 0.0000000396 6.7227025114 -0.9011174514 -0.0000000506 6.9226227575 -0.8954715583 -0.0000001615 7.1225430259 -0.8898256707 -0.0000002731 7.3224632945 -0.8841797853 -0.0000003764 7.5223835649 -0.8785339012 -0.0000004691 7.7223038378 -0.8728880159 -0.0000005558 7.9222240951 -0.8672421312 -0.0000006326 8.1221443683 -0.8615962478 -0.0000007119 8.3220646404 -0.8559503668 -0.0000007878 8.5219849127 -0.8503044869 -0.0000008582 8.7219051862 -0.8446586074 -0.0000009187 8.9218254430 -0.8390127291 -0.0000009592 9.1217457160 -0.8333668528 -0.0000009540 9.3216659872 -0.8277209773 -0.0000009210 9.5215862578 -0.8220751034 -0.0000008552 9.7215065290 -0.8164292296 -0.0000007574 9.9214267801 -0.8107833586 -0.0000005951 10.1213470476 -0.8051374890 -0.0000004152 10.3212673115 -0.7994916234 -0.0000002198 10.5211875741 -0.7938457641 -0.0000000128 10.7211078387 -0.7881999092 0.0000002058 10.9210280811 -0.7825540597 0.0000004467 11.1209483472 -0.7769082138 0.0000006916 11.3208686120 -0.7712623703 0.0000009260 11.5207888772 -0.7656165313 0.0000011352 11.7207091449 -0.7599706967 0.0000013105 11.9206293925 -0.7543248705 0.0000014386 12.1205496635 -0.7486790520 0.0000015273 12.3204699155 -0.7430332441 0.0000015717 12.5203901902 -0.7373874466 0.0000016213 12.7203104686 -0.7317416573 0.0000016696 12.9202307392 -0.7260958795 0.0000016943 13.1201510296 -0.7204501099 0.0000017432 13.3200713193 -0.7148043419 0.0000017923 13.5849907317 -0.6922302905 0.0000000000 13.7849883963 -0.6931966783 0.0000000000 13.9849860608 -0.6941630659 0.0000000000 14.1849837280 -0.6951294529 0.0000000000 14.3849813926 -0.6960958409 0.0000000000 14.5849790584 -0.6970622280 0.0000000000 14.7849767241 -0.6980286159 0.0000000000 14.9849743889 -0.6989950033 0.0000000000 15.1849720555 -0.6999613909 0.0000000000 15.3849697204 -0.7009277785 -0.0000000000 15.5849673864 -0.7018941661 -0.0000000000 15.7849650521 -0.7028605532 -0.0000000000 16.0977559969 -0.5219040411 0.0000001388 16.2976163286 -0.5144309946 0.0000000299 16.4974766526 -0.5069579504 -0.0000011708 16.6973369814 -0.4994849191 -0.0000008603 16.8971973104 -0.4920118908 -0.0000001009 17.0970576418 -0.4845388648 -0.0000000877 17.2969179757 -0.4770658392 0.0000000990 17.4967783053 -0.4695928120 -0.0000001803 17.6966386366 -0.4621197857 -0.0000002908 17.8964989652 -0.4546467597 -0.0000012713 18.0963592927 -0.4471737295 -0.0000006510 18.2962196198 -0.4397006971 0.0000022082 18.4960799385 -0.4322276699 0.0000009418 18.6959402685 -0.4247546393 0.0000000415 18.8958005996 -0.4172816137 -0.0000000026 19.0956609331 -0.4098085904 -0.0000001449 19.2955212680 -0.4023355650 0.0000004687 -0.5792767644 -0.9340574966 -0.0000000177 -0.3793564759 -0.9284115376 -0.0000000082 -0.1794361889 -0.9227655777 0.0000000030 0.0204840959 -0.9171196198 0.0000000137 0.2204043783 -0.9114736634 0.0000000251 0.4203246590 -0.9058277090 0.0000000419 0.6202449377 -0.9001817574 0.0000000701 0.8201652141 -0.8945358090 0.0000001168 1.0200854893 -0.8888898653 0.0000001911 1.2200057649 -0.8832439238 0.0000002809 1.4199260399 -0.8775979856 0.0000003703 1.6198463133 -0.8719520505 0.0000004502 1.8197665838 -0.8663061184 0.0000005169 2.0196868533 -0.8606601909 0.0000005732 2.2196071235 -0.8550142649 0.0000006273 2.4195273930 -0.8493683408 0.0000006867 2.6194476602 -0.8437224186 0.0000007514 2.8193679234 -0.8380764983 0.0000008205 3.0192881854 -0.8324305827 0.0000008816 3.2192084492 -0.8267846694 0.0000009281 3.4191287132 -0.8211387583 0.0000009575 3.6190489758 -0.8154928490 0.0000009673 3.8189692350 -0.8098469403 0.0000009528 4.0188894941 -0.8042010355 0.0000009132 4.2188097562 -0.7985551315 0.0000008637 4.4187300189 -0.7929092277 0.0000008064 4.6186502806 -0.7872633250 0.0000007378 4.8185705385 -0.7816174227 0.0000006527 5.0184907965 -0.7759715231 0.0000005490 5.2184110572 -0.7703256238 0.0000004433 5.4183313187 -0.7646797249 0.0000003507 5.6182515795 -0.7590338267 0.0000002804 5.8181718373 -0.7533879283 0.0000002345 6.0180920957 -0.7477420319 0.0000002080 6.2180123578 -0.7420961346 0.0000001795 6.4179326217 -0.7364502370 0.0000001285 6.6178528857 -0.7308043397 0.0000000487 6.8177731478 -0.7251584441 -0.0000000570 7.0176934113 -0.7195125550 -0.0000001769 7.2176136789 -0.7138666690 -0.0000002960 7.4175339485 -0.7082207847 -0.0000004048 7.6174542186 -0.7025749002 -0.0000005026 7.8173744875 -0.6969290145 -0.0000005913 8.0172947570 -0.6912831309 -0.0000006736 8.2172150288 -0.6856372493 -0.0000007523 8.4171353012 -0.6799913687 -0.0000008266 8.6170555727 -0.6743454887 -0.0000008940 8.8169758418 -0.6686996088 -0.0000009471 9.0168961105 -0.6630537316 -0.0000009651 9.2168163811 -0.6574078562 -0.0000009516 9.4167366519 -0.6517619815 -0.0000009056 9.6166569214 -0.6461161077 -0.0000008234 9.8165771875 -0.6404702340 -0.0000006990 10.0164974524 -0.6348243636 -0.0000005302 10.2164177188 -0.6291784963 -0.0000003398 10.4163379851 -0.6235326336 -0.0000001380 10.6162582496 -0.6178867760 0.0000000732 10.8161785108 -0.6122409223 0.0000002970 11.0160987724 -0.6065950752 0.0000005341 11.2160190377 -0.6009492309 0.0000007713 11.4159393049 -0.5953033899 0.0000009946 11.6158595725 -0.5896575529 0.0000011918 11.8157798390 -0.5840117209 0.0000013546 12.0157001063 -0.5783659001 0.0000014751 12.2156203760 -0.5727200853 0.0000015663 12.4155406498 -0.5670742846 0.0000016337 12.6154609287 -0.5614284918 0.0000016941 12.8153812119 -0.5557827070 0.0000017472 13.0153014995 -0.5501369355 0.0000017954 13.2152217924 -0.5444911678 0.0000018456 13.4858288129 -0.5185440411 0.0000000000 13.6858264795 -0.5195104269 0.0000000000 13.8858241450 -0.5204768143 0.0000000000 14.0858218106 -0.5214432022 0.0000000000 14.2858194761 -0.5224095896 0.0000000000 14.4858171417 -0.5233759773 0.0000000000 14.6858148070 -0.5243423649 0.0000000000 14.8858124725 -0.5253087523 0.0000000000 15.0858101384 -0.5262751403 0.0000000000 15.2858078038 -0.5272415274 0.0000000000 15.4858054696 -0.5282079147 0.0000000000 15.6858031325 -0.5291743045 0.0000000000 15.9913539820 -0.3525564378 -0.0000002437 16.1912143152 -0.3450833928 0.0000001367 16.3910746486 -0.3376103460 -0.0000004067 16.5909349815 -0.3301373079 -0.0000011726 16.7907953124 -0.3226642775 -0.0000004903 16.9906556445 -0.3151912505 -0.0000000693 17.1905159774 -0.3077182248 -0.0000003147 17.3903763102 -0.3002451974 0.0000000750 17.5902366411 -0.2927721700 0.0000008701 17.7900969698 -0.2852991432 0.0000007665 17.9899572959 -0.2778261149 -0.0000004111 18.1898176215 -0.2703530836 -0.0000005826 18.3896779478 -0.2628800530 -0.0000002584 18.5895382750 -0.2554070252 -0.0000003640 18.7893986055 -0.2479339989 0.0000000533 18.9892589388 -0.2404609759 0.0000001227 19.1891192739 -0.2329879523 0.0000004703 19.3889796095 -0.2255149267 0.0000014219 -0.6841264509 -0.7637444206 -0.0000000258 -0.4842061616 -0.7580984622 -0.0000000173 -0.2842858722 -0.7524525026 -0.0000000099 -0.0843655892 -0.7468065434 -0.0000000054 0.1155546967 -0.7411605860 -0.0000000042 0.3154749799 -0.7355146306 0.0000000007 0.5153952618 -0.7298686781 0.0000000174 0.7153155434 -0.7242227287 0.0000000535 0.9152358175 -0.7185767828 0.0000001183 1.1151560975 -0.7129308403 0.0000002129 1.3150763759 -0.7072849002 0.0000003174 1.5149966532 -0.7016389629 0.0000004200 1.7149169306 -0.6959930288 0.0000005136 1.9148371971 -0.6903470980 0.0000005957 2.1147574719 -0.6847011709 0.0000006669 2.3146777445 -0.6790552453 0.0000007366 2.5145980157 -0.6734093217 0.0000008068 2.7145182866 -0.6677634000 0.0000008769 2.9144385435 -0.6621174816 0.0000009445 3.1143588122 -0.6564715667 0.0000009988 3.3142790788 -0.6508256541 0.0000010382 3.5141993446 -0.6451797434 0.0000010578 3.7141196113 -0.6395338339 0.0000010549 3.9140398628 -0.6338879271 0.0000010218 4.1139601288 -0.6282420225 0.0000009667 4.3138803933 -0.6225961181 0.0000009002 4.5138006573 -0.6169502141 0.0000008229 4.7137209223 -0.6113043108 0.0000007323 4.9136411699 -0.6056584107 0.0000006250 5.1135614340 -0.6000125111 0.0000005116 5.3134816964 -0.5943666119 0.0000004094 5.5134019587 -0.5887207133 0.0000003313 5.7133222226 -0.5830748147 0.0000002819 5.9
[...]
      <PointData Scalars="radius">
        <DataArray type="Float32" Name="radius" format="ascii">
 0.1000000000 0.1000000000 0.1000000000 0.1000000000 0.1000000000 0.1000000000 0.1000000000 0.1000000000 0.1000000000 0.1000000000 0.1000000000 0.1000000000 0.1000000000 0.1000000000 0.1000000000 0.1000000000 0.1000000000 0.1000000000 0.1000000000 0.1000000000 0.1000000000 0.1000000000 0.1000000000 0.1000000000 0.1000000000 0.1000000000 0.1000000000 0.1000000000 0.1000000000 0.1000000000 0.1000000000 0.1000000000 0.1000000000 0.1000000000 0.1000000000 0.1000000000 0.1000000000 0.1000000000 0.1000000000 0.1000000000 0.1000000000 0.1000000000 0.1000000000 0.1000000000 0.1000000000 0.1000000000 0.1000000000 0.1000000000 0.1000000000 0.1000000000 0.1000000000 0.1000000000 0.1000000000 0.1000000000 0.1000000000 0.1000000000 0.1000000000 0.1000000000 0.1000000000 0.1000000000 0.1000000000 0.1000000000 0.1000000000 0.1000000000 0.1000000000 0.1000000000 0.1000000000 0.1000000000 0.1000000000 0.1000000000 0.1000000000 0.1000000000 0.1000000000 0.1000000000 0.1000000000 0.1000000000 0.1000000000 0.1000000000 0.1000000000 0.1000000000 0.1000000000 0.1000000000 0.1000000000 0.1000000000 0.1000000000 0.1000000000 0.1000000000 0.1000000000 0.1000000000 0.1000000000 0.1000000000 0.1000000000 0.1000000000 0.1000000000 0.1000000000 0.1000000000 0.1000000000 0.1000000000 0.1000000000 0.1000000000 0.1000000000 0.1000000000 0.1000000000 0.1000000000 0.1000000000 0.1000000000 0.1000000000 0.1000000000 0.1000000000 0.1000000000 0.1000000000 0.1000000000 0.1000000000 0.1000000000 0.1000000000 0.1000000000 0.1000000000 0.1000000000 0.1000000000 0.1000000000 0.1000000000 0.1000000000 0.1000000000 0.1000000000 0.1000000000 0.1000000000 0.1000000000 0.1000000000 0.1000000000 0.1000000000 0.1000000000 0.1000000000 0.1000000000 0.1000000000 0.1000000000 0.1000000000 0.1000000000 0.1000000000 0.1000000000 0.1000000000 0.1000000000 0.1000000000 0.1000000000 0.1000000000 0.1000000000 0.1000000000 0.1000000000 0.1000000000 0.1000000000 0.1000000000 0.1000000000 0.1000000000 0.1000000000 0.1000000000 0.1000000000 0.1000000000 0.1000000000 0.1000000000 0.1000000000 0.1000000000 0.1000000000 0.1000000000 0.1000000000 0.1000000000 0.1000000000 0.1000000000 0.1000000000 0.1000000000 0.1000000000 0.1000000000 0.1000000000 0.1000000000 0.1000000000 0.1000000000 0.1000000000 0.1000000000 0.1000000000 0.1000000000 0.1000000000 0.1000000000 0.1000000000 0.1000000000 0.1000000000 0.1000000000 0.1000000000 0.1000000000 0.1000000000 0.1000000000 0.1000000000 0.1000000000 0.1000000000 0.1000000000 0.1000000000 0.1000000000 0.1000000000 0.1000000000 0.1000000000 0.1000000000 0.1000000000 0.1000000000 0.1000000000 0.1000000000 0.1000000000 0.1000000000 0.1000000000 0.1000000000 0.1000000000 0.1000000000 0.1000000000 0.1000000000 0.1000000000 0.1000000000 0.1000000000 0.1000000000 0.1000000000 0.1000000000 0.1000000000 0.1000000000 0.1000000000 0.1000000000 0.1000000000 0.1000000000 0.1000000000 0.1000000000 0.1000000000 0.1000000000 0.1000000000 0.1000000000 0.1000000000 0.1000000000 0.1000000000 0.1000000000 0.1000000000 0.1000000000 0.1000000000 0.1000000000 0.1000000000 0.1000000000 0.1000000000 0.1000000000 0.1000000000 0.1000000000 0.1000000000 0.1000000000 0.1000000000 0.1000000000 0.1000000000 0.1000000000 0.1000000000 0.1000000000 0.1000000000 0.1000000000 0.1000000000 0.1000000000 0.1000000000 0.1000000000 0.1000000000 0.1000000000 0.1000000000 0.1000000000 0.1000000000 0.1000000000 0.1000000000 0.1000000000 0.1000000000 0.1000000000 0.1000000000 0.1000000000 0.1000000000 0.1000000000 0.1000000000 0.1000000000 0.1000000000 0.1000000000 0.1000000000 0.1000000000 0.1000000000 0.1000000000 0.1000000000 0.1000000000 0.1000000000 0.1000000000 0.1000000000 0.1000000000 0.1000000000 0.1000000000 0.1000000000 0.1000000000 0.1000000000 0.1000000000 0.1000000000 0.1000000000 0.1000000000 0.1000000000 0.1000000000 0.1000000000 0.1000000000 0.1000000000 0.1000000000 0.1000000000 0.1000000000 0.1000000000 0.1000000000 0.1000000000 0.1000000000 0.1000000000 0.1000000000 0.1000000000 0.1000000000 0.1000000000 0.1000000000 0.1000000000 0.1000000000 0.1000000000 0.1000000000 0.1000000000 0.1000000000 0.1000000000 0.1000000000 0.1000000000 0.1000000000 0.1000000000 0.1000000000 0.1000000000 0.1000000000 0.1000000000 0.1000000000 0.1000000000 0.1000000000 0.1000000000 0.1000000000 0.1000000000 0.1000000000 0.1000000000 0.1000000000 0.1000000000 0.1000000000 0.1000000000 0.1000000000 0.1000000000 0.1000000000 0.1000000000 0.1000000000 0.1000000000 0.1000000000 0.1000000000 0.1000000000 0.1000000000 0.1000000000 0.1000000000 0.1000000000 0.1000000000 0.1000000000 0.1000000000 0.1000000000 0.1000000000 0.1000000000 0.1000000000 0.1000000000 0.1000000000 0.1000000000 0.1000000000 0.1000000000 0.1000000000 0.1000000000 0.1000000000 0.1000000000 0.1000000000 0.1000000000 0.1000000000 0.1000000000 0.1000000000 0.1000000000 0.1000000000 0.1000000000 0.1000000000 0.1000000000 0.1000000000 0.1000000000 0.1000000000 0.1000000000 0.1000000000 0.1000000000 0.1000000000 0.1000000000 0.1000000000 0.1000000000 0.1000000000 0.1000000000 0.1000000000 0.1000000000 0.1000000000 0.1000000000 0.1000000000 0.1000000000 0.1000000000 0.1000000000 0.1000000000 0.1000000000 0.1000000000 0.1000000000 0.1000000000 0.1000000000 0.1000000000 0.1000000000 0.1000000000 0.1000000000 0.1000000000 0.1000000000 0.1000000000 0.1000000000 0.1000000000 0.1000000000 0.1000000000 0.1000000000 0.1000000000 0.1000000000 0.1000000000 0.1000000000 0.1000000000 0.1000000000 0.1000000000 0.1000000000 0.1000000000 0.1000000000 0.1000000000 0.1000000000 0.1000000000 0.1000000000 0.1000000000 0.1000000000 0.1000000000 0.1000000000 0.1000000000 0.1000000000 0.1000000000 0.1000000000 0.1000000000 0.1000000000 0.1000000000 0.1000000000 0.1000000000 0.1000000000 0.1000000000 0.1000000000 0.1000000000 0.1000000000 0.1000000000 0.1000000000 0.1000000000 0.1000000000 0.1000000000 0.1000000000 0.1000000000 0.1000000000 0.1000000000 0.1000000000 0.1000000000 0.1000000000 0.1000000000 0.1000000000 0.1000000000 0.1000000000 0.1000000000 0.1000000000 0.1000000000 0.1000000000 0.1000000000 0.1000000000 0.1000000000 0.1000000000 0.1000000000 0.1000000000 0.1000000000 0.1000000000 0.1000000000 0.1000000000 0.1000000000 0.1000000000 0.1000000000 0.1000000000 0.1000000000 0.1000000000 0.1000000000 0.1000000000 0.1000000000 0.1000000000 0.1000000000 0.1000000000 0.1000000000 0.1000000000 0.1000000000 0.1000000000 0.1000000000 0.1000000000 0.1000000000 0.1000000000 0.1000000000 0.1000000000 0.1000000000 0.1000000000 0.1000000000 0.1000000000 0.1000000000 0.1000000000 0.1000000000 0.1000000000 0.1000000000 0.1000000000 0.1000000000 0.1000000000 0.1000000000 0.1000000000 0.1000000000 0.1000000000 0.1000000000 0.1000000000 0.1000000000 0.1000000000 0.1000000000 0.1000000000 0.1000000000 0.1000000000 0.1000000000 0.1000000000 0.1000000000 0.1000000000 0.1000000000 0.1000000000 0.1000000000 0.1000000000 0.1000000000 0.1000000000 0.1000000000 0.1000000000 0.1000000000 0.1000000000 0.1000000000 0.1000000000 0.1000000000 0.1000000000 0.1000000000 0.1000000000 0.1000000000 0.1000000000 0.1000000000 0.1000000000 0.1000000000 0.1000000000 0.1000000000 0.1000000000 0.1000000000 0.1000000000 0.1000000000 0.1000000000 0.1000000000 0.1000000000 0.1000000000 0.1000000000 0.1000000000 0.1000000000 0.1000000000 0.1000000000 0.1000000000 0.1000000000 0.1000000000 0.1000000000 0.1000000000 0.1000000000 0.1000000000 0.1000000000 0.1000000000 0.1000000000 0.1000000000 0.1000000000 0.1000000000 0.1000000000 0.1000000000 0.1000000000 0.1000000000 0.1000000000 0.1000000000 0.1000000000 0.1000000000 0.1000000000 0.1000000000 0.1000000000 0.1000000000 0.1000000000 0.1000000000 0.1000000000 0.1000000000 0.1000000000 0.1000000000 0.1000000000 0.1000000000 0.1000000000 0.1000000000 0.1000000000 0.1000000000 0.1000000000 0.1000000000 0.1000000000 0.1000000000 0.1000000000 0.1000000000 0.1000000000 0.1000000000 0.1000000000 0.1000000000 0.1000000000 0.1000000000 0.1000000000 0.1000000000 0.1000000000 0.1000000000 0.1000000000 0.1000000000 0.1000000000 0.1000000000 0.1000000000 0.1000000000 0.1000000000 0.1000000000 0.1000000000 0.1000000000 0.1000000000 0.1000000000 0.1000000000 0.1000000000 0.1000000000 0.1000000000 0.1000000000 0.1000000000 0.1000000000 0.1000000000 0.1000000000 0.1000000000 0.1000000000 0.1000000000 0.1000000000 0.1000000000 0.1000000000 0.1000000000 0.1000000000 0.1000000000 0.1000000000 0.1000000000 0.1000000000 0.1000000000 0.1000000000 0.1000000000 0.1000000000 0.1000000000 0.1000000000 0.1000000000 0.1000000000 0.1000000000 0.1000000000 0.1000000000 0.1000000000 0.1000000000 0.1000000000 0.1000000000 0.1000000000 0.1000000000 0.1000000000 0.1000000000 0.1000000000 0.1000000000 0.1000000000 0.1000000000 0.1000000000 0.1000000000 0.1000000000 0.1000000000 0.1000000000 0.1000000000 0.1000000000 0.1000000000 0.1000000000 0.1000000000 0.1000000000 0.1000000000 0.1000000000 0.1000000000 0.1000000000 0.1000000000 0.1000000000 0.1000000000 0.1000000000 0.1000000000 0.1000000000 0.1000000000 0.1000000000 0.1000000000 0.1000000000 0.1000000000 0.1000000000 0.1000000000 0.1000000000 0.1000000000 0.1000000000 0.1000000000 0.1000000000 0.1000000000 0.1000000000 0.1000000000 0.1000000000 0.1000000000 0.1000000000 0.1000000000 0.1000000000 0.1000000000 0.1000000000 0.1000000000 0.1000000000 0.1000000000 0.1000000000 0.1000000000 0.1000000000 0.1000000000 0.1000000000 0.1000000000 0.1000000000 0.1000000000 0.1000000000 0.1000000000 0.1000000000 0.1000000000 0.1000000000 0.1000000000 0.1000000000 0.1000000000 0.1000000000 0.1000000000 0.1000000000 0.1000000000 0.1000000000 0.1000000000 0.1000000000 0.1000000000 0.1000000000 0.1000000000 0.1000000000 0.1000000000 0.1000000000 0.1000000000 0.1000000000 0.1000000000 0.1000000000 0.1000000000 0.1000000000 0.1000000000 0.1000000000 0.1000000000 0.1000000000 0.1000000000 0.1000000000 0.1000000000 0.1000000000 0.1000000000 0.1000000000 0.1000000000 0.1000000000 0.1000000000 0.1000000000 0.1000000000 0.1000000000 0.1000000000 0.1000000000 0.1000000000 0.1000000000 0.1000000000 0.1000000000 0.1000000000 0.1000000000 0.1000000000 0.1000000000 0.1000000000 0.1000000000 0.1000000000 0.1000000000 0.1000000000 0.1000000000 0.1000000000 0.1000000000 0.1000000000 0.1000000000 0.1000000000 0.1000000000 0.1000000000 0.1000000000 0.1000000000 0.1000000000 0.1000000000 0.1000000000 0.1000000000 0.1000000000 0.1000000000 0.1000000000 0.1000000000 0.1000000000 0.1000000000 0.1000000000 0.1000000000 0.1000000000 0.1000000000 0.1000000000 0.1000000000 0.1000000000 0.1000000000 0.1000000000 0.1000000000 0.1000000000 0.1000000000 0.1000000000 0.1000000000 0.1000000000 0.1000000000 0.1000000000 0.1000000000 0.1000000000 0.1000000000 0.1000000000 0.1000000000 0.1000000000 0.1000000000 0.1000000000 0.1000000000 0.1000000000 0.1000000000 0.1000000000 0.1000000000 0.1000000000 0.1000000000 0.1000000000 0.1000000000 0.1000000000 0.1000000000 0.1000000000 0.1000000000 0.1000000000 0.1000000000 0.1000000000 0.1000000000 0.1000000000 0.1000000000 0.1000000000 0.1000000000 0.1000000000 0.1000000000 0.1000000000 0.1000000000 0.1000000000 0.1000000000 0.1000000000 0.1000000000 0.1000000000 0.1000000000 0.1000000000 0.1000000000 0.1000000000 0.1000000000 0.1000000000 0.1000000000 0.1000000000 0.1000000000 0.1000000000 0.1000000000 0.1000000000 0.1000000000 0.1000000000 0.1000000000 0.1000000000 0.1000000000 0.1000000000 0.1000000000 0.1000000000 0.1000000000 0.1000000000 0.1000000000 0.1000000000 0.1000000000 0.1000000000 0.1000000000 0.1000000000 0.1000000000 0.1000000000 0.1000000000 0.1000000000 0.1000000000 0.1000000000 0.1000000000 0.1000000000 0.1000000000 0.1000000000 0.1000000000 0.1000000000 0.1000000000 0.1000000000 0.1000000000 0.1000000000 0.1000000000 0.1000000000 0.1000000000 0.1000000000 0.1000000000 0.1000000000 0.1000000000 0.1000000000 0.1000000000 0.1000000000 0.1000000000 0.1000000000 0.1000000000 0.1000000000 0.1000000000 0.1000000000 0.1000000000 0.1000000000 0.1000000000 0.1000000000 0.1000000000 0.1000000000 0.1000000000 0.1000000000 0.1000000000 0.1000000000 0.1000000000 0.1000000000 0.1000000000 0.1000000000 0.1000000000 0.1000000000 0.1000000000 0.1000000000 0.1000000000 0.1000000000 0.1000000000 0.1000000000 0.1000000000 0.1000000000 0.1000000000 0.1000000000 0.1000000000 0.1000000000 0.1000000000 0.1000000000 0.1000000000 0.1000000000 0.1000000000 0.1000000000 0.1000000000 0.1000000000 0.1000000000 0.1000000000 0.1000000000 0.1000000000 0.1000000000 0.1000000000 0.1000000000 0.1000000000 0.1000000000 0.1000000000 0.1000000000 0.1000000000 0.1000000000 0.1000000000 0.1000000000 0.1000000000 0.1000000000 0.1000000000 0.1000000000 0.1000000000 0.1000000000 0.1000000000 0.1000000000 0.1000000000 0.1000000000 0.1000000000 0.1000000000 0.1000000000 0.1000000000 0.1000000000 0.1000000000 0.1000000000 0.1000000000 0.1000000000 0.1000000000 0.1000000000 0.1000000000 0.1000000000 0.1000000000 0.1000000000 0.1000000000 0.1000000000 0.1000000000 0.1000000000 0.1000000000 0.1000000000 0.1000000000 0.1000000000 0.1000000000 0.1000000000 0.1000000000 0.1000000000 0.1000000000 0.1000000000 0.1000000000 0.1000000000 0.1000000000 0.1000000000 0.1000000000 0.1000000000 0.1000000000 0.1000000000 0.1000000000 0.1000000000 0.1000000000 0.1000000000 0.1000000000 0.1000000000 0.1000000000 0.1000000000 0.1000000000 0.1000000000 0.1000000000 0.1000000000 0.1000000000 0.1000000000 0.1000000000 0.1000000000 0.1000000000 0.1000000000 0.1000000000 0.1000000000 0.1000000000 0.1000000000 0.1000000000 0.1000000000 0.1000000000 0.1000000000 0.1000000000 0.1000000000 0.1000000000 0.1000000000 0.1000000000 0.1000000000 0.1000000000 0.1000000000 0.1000000000 0.1000000000 0.1000000000 0.1000000000 0.1000000000 0.1000000000 0.1000000000 0.1000000000 0.1000000000 0.1000000000 0.1000000000 0.1000000000 0.1000000000 0.1000000000 0.1000000000 0.1000000000 0.1000000000 0.1000000000 0.1000000000 0.1000000000 0.1000000000 0.1000000000 0.1000000000 0.1000000000 0.1000000000 0.1000000000 0.1000000000 0.1000000000 0.1000000000 0.1000000000 0.1000000000 0.1000000000 0.1000000000 0.1000000000 0.1000000000 0.1000000000 0.1000000000 0.1000000000 0.1000000000 0.1000000000 0.1000000000 0.1000000000 0.1000000000 0.1000000000 0.1000000000 0.1000000000 0.1000000000 0.1000000000 0.1000000000 0.1000000000 0.1000000000 0.1000000000 0.1000000000 0.1000000000 0.1000000000 0.1000000000 0.1000000000 0.1000000000 0.1000000000 0.1000000000 0.1000000000 0.1000000000 0.1000000000 0.1000000000 0.1000000000 0.1000000000 0.1000000000 0.1000000000 0.1000000000 0.1000000000 0.1000000000 0.1000000000 0.1000000000 0.1000000000 0.1000000000 0.1000000000 0.1000000000 0.1000000000 0.1000000000 0.1000000000 0.1000000000 0.1000000000 0.1000000000 0.1000000000 0.1000000000 0.1000000000 0.1000000000 0.1000000000 0.1000000000 0.1000000000 0.1000000000 0.1000000000 0.1000000000 0.1000000000 0.1000000000 0.1000000000 0.1000000000 0.1000000000 0.1000000000 0.1000000000 0.1000000000 0.1000000000 0.1000000000 0.1000000000 0.1000000000 0.1000000000 0.1000000000 0.1000000000 0.1000000000 0.1000000000 0.1000000000 0.1000000000 0.1000000000 0.1000000000 0.1000000000 0.1000000000 0.1000000000 0.1000000000 0.1000000000 0.1000000000 0.1000000000 0.1000000000 0.1000000000 0.1000000000 0.1000000000 0.1000000000 0.1000000000 0.1000000000 0.1000000000 0.1000000000 0.1000000000 0.1000000000 0.1000000000 0.1000000000 0.1000000000 0.1000000000 0.1000000000 0.1000000000 0.1000000000 0.1000000000 0.1000000000 0.1000000000 0.1000000000 0.1000000000 0.1000000000 0.1000000000 0.1000000000 0.1000000000 0.1000000000 0.1000000000 0.1000000000 0.1000000000 0.1000000000 0.1000000000 0.1000000000 0.1000000000 0.1000000000 0.1000000000 0.1000000000 0.1000000000 0.1000000000 0.1000000000 0.1000000000 0.1000000000 0.1000000000 0.1000000000 0.1000000000 0.1000000000 0.1000000000 0.1000000000 0.1000000000 0.1000000000 0.1000000000 0.1000000000 0.1000000000 0.1000000000 0.1000000000 0.1000000000 0.1000000000 0.1000000000 0.1000000000 0.1000000000 0.1000000000 0.1000000000 0.1000000000 0.1000000000 0.1000000000 0.1000000000 0.1000000000 0.1000000000 0.1000000000 0.1000000000 0.1000000000 0.1000000000 0.1000000000 0.1000000000 0.1000000000 0.1000000000 0.1000000000 0.1000000000 0.1000000000 0.1000000000 0.1000000000 0.1000000000 0.1000000000 0.1000000000 0.1000000000 0.1000000000 0.1000000000 0.1000000000 0.1000000000 0.1000000000 0.1000000000 0.1000000000 0.1000000000 0.1000000000 0.1000000000 0.1000000000 0.1000000000 0.1000000000 0.1000000000 0.1000000000 0.1000000000 0.1000000000 0.1000000000 0.1000000000 0.1000000000 0.1000000000 0.1000000000 0.1000000000 0.1000000000 0.1000000000 0.1000000000 0.1000000000 0.1000000000 0.1000000000 0.1000000000 0.1000000000 0.1000000000 0.1000000000 0.1000000000 0.1000000000 0.1000000000 0.1000000000 0.1000000000 0.1000000000 0.1000000000 0.1000000000 0.1000000000 0.1000000000 0.1000000000 0.1000000000 0.1000000000 0.1000000000 0.1000000000 0.1000000000 0.1000000000 0.1000000000 0.1000000000 0.1000000000 0.1000000000 0.1000000000 0.1000000000 0.1000000000 0.1000000000 0.1000000000 0.1000000000 0.1000000000 0.1000000000 0.1000000000 0.1000000000 0.1000000000 0.1000000000 0.1000000000 0.1000000000 0.1000000000 0.1000000000 0.1000000000 0.1000000000 0.1000000000 0.1000000000 0.1000000000 0.1000000000 0.1000000000 0.1000000000 0.1000000000 0.1000000000 0.1000000000 0.1000000000 0.1000000000 0.1000000000 0.1000000000 0.1000000000 0.1000000000 0.1000000000 0.1000000000 0.1000000000 0.1000000000 0.1000000000 0.1000000000 0.1000000000 0.1000000000 0.1000000000 0.1000000000 0.1000000000 0.1000000000 0.1000000000 0.1000000000 0.1000000000 0.1000000000 0.1000000000 0.1000000000 0.1000000000 0.1000000000 0.1000000000 0.1000000000 0.1000000000 0.1000000000 0.1000000000 0.1000000000 0.1000000000 0.1000000000 0.1000000000 0.1000000000 0.1000000000 0.1000000000 0.1000000000 0.1000000000 0.1000000000 0.1000000000 0.1000000000 0.1000000000 0.1000000000 0.1000000000 0.1000000000 0.1000000000 0.1000000000 0.1000000000 0.1000000000 0.1000000000 0.1000000000 0.1000000000 0.1000000000 0.1000000000 0.1000000000 0.1000000000 0.1000000000 0.1000000000 0.1000000000 0.1000000000 0.1000000000 0.1000000000 0.1000000000 0.1000000000 0.1000000000 0.1000000000 0.1000000000 0.1000000000 0.1000000000 0.1000000000 0.1000000000 0.1000000000 0.1000000000 0.1000000000 0.1000000000 0.1000000000 0.1000000000 0.1000000000 0.1000000000 0.1000000000 0.1000000000 0.1000000000 0.1000000000 0.1000000000 0.1000000000 0.1000000000 0.1000000000 0.1000000000 0.1000000000 0.1000000000 0.1000000000 0.1000000000 0.1000000000 0.1000000000 0.1000000000 0.1000000000 0.1000000000 0.1000000000 0.1000000000 0.1000000000 0.1000000000 0.1000000000 0.1000000000 0.1000000000 0.1000000000 0.1000000000 0.1000000000 0.1000000000 0.1000000000 0.1000000000 0.1000000000 0.1000000000 0.1000000000 0.1000000000 0.1000000000 0.1000000000 0.1000000000 0.1000000000 0.1000000000 0.1000000000 0.1000000000 0.1000000000 0.1000000000 0.1000000000 0.1000000000 0.1000000000 0.1000000000 0.1000000000 0.1000000000 0.1000000000 0.1000000000 0.1000000000 0.1000000000 0.1000000000 0.1000000000 0.1000000000 0.1000000000 0.1000000000 0.1000000000 0.1000000000 0.1000000000 0.1000000000 0.1000000000 0.1000000000 0.1000000000 0.1000000000 0.1000000000 0.1000000000 0.1000000000 0.1000000000 0.1000000000 0.1000000000 0.1000000000 0.1000000000 0.1000000000 0.1000000000 0.1000000000 0.1000000000 0.1000000000 0.1000000000 0.1000000000 0.1000000000 0.1000000000 0.1000000000 0.1000000000 0.1000000000 0.1000000000 0.1000000000 0.1000000000 0.1000000000 0.1000000000 0.1000000000 0.1000000000 0.1000000000 0.1000000000 0.1000000000 0.1000000000 0.1000000000 0.1000000000 0.1000000000 0.1000000000 0.1000000000 0.1000000000 0.1000000000 0.1000000000 0.1000000000 0.1000000000 0.1000000000 0.1000000000 0.10000000