<?xml version="1.0"?>
<VTKFile type="UnstructuredGrid" version="0.1" byte_order="LittleEndian">
  <UnstructuredGrid>
    <FieldData>
      <DataArray type="Float32" Name="TIME"  NumberOfTuples="1" format="ascii"> 1.3000000000 </DataArray>
      <DataArray type="Int32"   Name="STEP"  NumberOfTuples="1" format="ascii"> 325000 </DataArray>
    </FieldData>
    <Piece NumberOfPoints="11600" NumberOfCells="11600">
      <Points>
        <DataArray type="Float32" NumberOfComponents="3" format="ascii">
 -0.2077650391 -0.4597001415 0.0000000000 -0.0077819030 -0.4571030923 0.0000000000 0.1922012354 -0.4545060435 0.0000000000 0.3921843707 -0.4519089945 0.0000000000 0.5921675082 -0.4493119452 0.0000000000 0.7921506445 -0.4467148964 0.0000000000 0.9921337807 -0.4441178475 0.0000000000 1.1921169173 -0.4415207988 0.0000000000 1.3921000514 -0.4389237497 0.0000000000 1.5920831877 -0.4363267005 0.0000000000 1.7920663231 -0.4337296516 0.0000000000 1.9920494586 -0.4311326032 0.0000000000 2.1920325946 -0.4285355548 0.0000000000 2.3920157280 -0.4259385064 0.0000000000 2.5919988638 -0.4233414579 0.0000000000 2.7919819991 -0.4207444099 0.0000000000 2.9919651341 -0.4181473618 0.0000000000 3.1919482696 -0.4155503141 0.0000000000 3.3919314020 -0.4129532663 0.0000000000 3.5919145370 -0.4103562185 0.0000000000 3.7918976710 -0.4077591710 0.0000000000 3.9918808048 -0.4051621235 0.0000000000 4.1918639388 -0.4025650764 0.0000000000 4.3918470689 -0.3999680297 0.0000000000 4.5918302025 -0.3973709832 0.0000000000 4.7918133355 -0.3947739369 0.0000000000 4.9917964684 -0.3921768905 0.0000000000 5.1917796016 -0.3895798441 0.0000000000 5.3917627298 -0.3869827979 0.0000000000 5.5917458621 -0.3843857526 0.0000000000 5.7917289936 -0.3817887081 0.0000000000 5.9917121247 -0.3791916645 0.0000000000 6.1916952564 -0.3765946222 0.0000000000 6.3916783828 -0.3739975812 0.0000000000 6.5916615148 -0.3714005421 0.0000000000 6.7916446465 -0.3688035037 0.0000000000 6.9916277786 -0.3662064662 0.0000000000 7.1916109117 -0.3636094293 0.0000000000 7.3915940411 -0.3610123926 0.0000000000 7.5915771748 -0.3584153561 0.0000000000 7.7915603080 -0.3558183198 0.0000000000 7.9915434413 -0.3532212839 0.0000000000 8.1915265753 -0.3506242480 0.0000000000 8.3915097056 -0.3480272121 0.0000000000 8.5914928396 -0.3454301762 0.0000000000 8.7914759730 -0.3428331410 0.0000000000 8.9914591067 -0.3402361059 0.0000000000 9.1914422413 -0.3376390713 0.0000000000 9.3914253731 -0.3350420369 0.0000000000 9.5914085083 -0.3324450023 0.0000000000 9.7913916430 -0.3298479681 0.0000000000 9.9913747780 -0.3272509340 0.0000000000 10.1913579134 -0.3246538997 0.0000000000 10.3913410457 -0.3220568660 0.0000000000 10.5913241807 -0.3194598330 0.0000000000 10.7913073153 -0.3168628009 0.0000000000 10.9912904499 -0.3142657695 0.0000000000 11.1912735854 -0.3116687387 0.0000000000 11.3912567179 -0.3090717085 0.0000000000 11.5912398534 -0.3064746787 0.0000000000 11.7912229882 -0.3038776494 0.0000000000 11.9912061231 -0.3012806208 0.0000000000 12.1911892590 -0.2986835929 0.0000000000 12.3911723923 -0.2960865649 0.0000000000 12.5911555289 -0.2934895371 0.0000000000 12.7911386631 -0.2908925104 0.0000000000 12.9911218000 -0.2882954831 0.0000000000 13.1911049374 -0.2856984574 0.0000000000 13.3910880732 -0.2831014316 0.0000000000 13.5910712134 -0.2805044059 0.0000000000 13.7910543505 -0.2779073783 0.0000000000 14.0079014898 -0.2716458767 0.0000000000 14.2079010608 -0.2720597976 0.0000000000 14.4079006317 -0.2724737183 0.0000000000 14.6079002053 -0.2728876385 0.0000000000 14.8078997765 -0.2733015596 0.0000000000 15.0078993486 -0.2737154799 0.0000000000 15.2078989208 -0.2741294009 0.0000000000 15.4078984920 -0.2745433215 0.0000000000 15.6078980651 -0.2749572421 0.0000000000 15.8078976364 -0.2753711629 0.0000000000 16.0078972090 -0.2757850836 0.0000000000 16.2078967811 -0.2761990038 -0.0000000000 16.4503273289 -0.2052574116 0.0000000130 16.6503060499 -0.2023399526 0.0000000126 16.8502847692 -0.1994224954 0.0000000123 17.0502634911 -0.1965050377 0.0000000121 17.2502422114 -0.1935875810 0.0000000117 17.4502209317 -0.1906701249 0.0000000114 17.6501996536 -0.1877526702 0.0000000110 17.8501783773 -0.1848352164 0.0000000105 18.0501571001 -0.1819177621 0.0000000101 18.2501358223 -0.1790003076 0.0000000098 18.4501145442 -0.1760828527 0.0000000096 18.6500932677 -0.1731653976 0.0000000094 18.8500719934 -0.1702479408 0.0000000092 19.0500507163 -0.1673304818 0.0000000090 19.2500294373 -0.1644130231 0.0000000089 19.4500081577 -0.1614955641 0.0000000088 19.6499868773 -0.1585781049 0.0000000088 -0.1100225811 -0.2852111403 0.0000000000 0.0899605552 -0.2826140917 0.0000000000 0.2899436925 -0.2800170424 0.0000000000 0.4899268296 -0.2774199934 0.0000000000 0.6899099659 -0.2748229443 0.0000000000 0.8898931021 -0.2722258952 0.0000000000 1.0898762380 -0.2696288461 0.0000000000 1.2898593740 -0.2670317970 0.0000000000 1.4898425098 -0.2644347482 0.0000000000 1.6898256453 -0.2618376992 0.0000000000 1.8898087808 -0.2592406505 0.0000000000 2.0897919161 -0.2566436017 0.0000000000 2.2897750515 -0.2540465532 0.0000000000 2.4897581868 -0.2514495049 0.0000000000 2.6897413219 -0.2488524568 0.0000000000 2.8897244570 -0.2462554085 0.0000000000 3.0897075918 -0.2436583603 0.0000000000 3.2896907264 -0.2410613124 0.0000000000 3.4896738609 -0.2384642649 0.0000000000 3.6896569950 -0.2358672172 0.0000000000 3.8896401289 -0.2332701695 0.0000000000 4.0896232624 -0.2306731220 0.0000000000 4.2896063954 -0.2280760750 0.0000000000 4.4895895282 -0.2254790286 0.0000000000 4.6895726611 -0.2228819823 0.0000000000 4.8895557940 -0.2202849359 0.0000000000 5.0895389264 -0.2176878893 0.0000000000 5.2895220583 -0.2150908427 0.0000000000 5.4895051901 -0.2124937971 0.0000000000 5.6894883218 -0.2098967524 0.0000000000 5.8894714536 -0.2072997083 0.0000000000 6.0894545852 -0.2047026652 0.0000000000 6.2894377163 -0.2021056232 0.0000000000 6.4894208476 -0.1995085834 0.0000000000 6.6894039793 -0.1969115448 0.0000000000 6.8893871118 -0.1943145070 0.0000000000 7.0893702441 -0.1917174696 0.0000000000 7.2893533764 -0.1891204326 0.0000000000 7.4893365090 -0.1865233961 0.0000000000 7.6893196419 -0.1839263600 0.0000000000 7.8893027752 -0.1813293239 0.0000000000 8.0892859084 -0.1787322878 0.0000000000 8.2892690414 -0.1761352517 0.0000000000 8.4892521744 -0.1735382159 0.0000000000 8.6892353078 -0.1709411806 0.0000000000 8.8892184415 -0.1683441455 0.0000000000 9.0892015753 -0.1657471107 0.0000000000 9.2891847092 -0.1631500761 0.0000000000 9.4891678435 -0.1605530417 0.0000000000 9.6891509781 -0.1579560076 0.0000000000 9.8891341131 -0.1553589734 0.0000000000 10.0891172479 -0.1527619391 0.0000000000 10.2891003826 -0.1501649049 0.0000000000 10.4890835174 -0.1475678715 0.0000000000 10.6890666522 -0.1449708391 0.0000000000 10.8890497873 -0.1423738075 0.0000000000 11.0890329223 -0.1397767764 0.0000000000 11.2890160572 -0.1371797457 0.0000000000 11.4889991922 -0.1345827159 0.0000000000 11.6889823273 -0.1319856864 0.0000000000 11.8889654627 -0.1293886577 0.0000000000 12.0889485977 -0.1267916292 0.0000000000 12.2889317333 -0.1241946010 0.0000000000 12.4889148688 -0.1215975739 0.0000000000 12.6888980046 -0.1190005463 0.0000000000 12.8888811410 -0.1164035199 0.0000000000 13.0888642774 -0.1138064939 0.0000000000 13.2888474150 -0.1112094673 0.0000000000 13.4888305527 -0.1086124429 0.0000000000 13.6888136908 -0.1060154165 0.0000000000 13.9082601674 -0.0982342096 0.0000000000 14.1082597404 -0.0986481286 0.0000000000 14.3082593124 -0.0990620491 0.0000000000 14.5082588844 -0.0994759702 0.0000000000 14.7082584563 -0.0998898907 0.0000000000 14.9082580284 -0.1003038115 0.0000000000 15.1082576002 -0.1007177323 0.0000000000 15.3082571720 -0.1011316528 0.0000000000 15.5082567444 -0.1015455740 0.0000000000 15.7082563163 -0.1019594941 0.0000000000 15.9082558886 -0.1023734146 -0.0000000000 16.1082554579 -0.1027873375 -0.0000000000 16.3478113762 -0.0335294909 0.0000000129 16.5477900950 -0.0306120317 0.0000000125 16.7477688163 -0.0276945732 0.0000000122 16.9477475377 -0.0247771160 0.0000000119 17.1477262589 -0.0218596588 0.0000000115 17.3477049803 -0.0189422025 0.0000000112 17.5476837021 -0.0160247473 0.0000000108 17.7476624253 -0.0131072929 0.0000000104 17.9476411487 -0.0101898389 0.0000000100 18.1476198710 -0.0072723846 0.0000000097 18.3475985932 -0.0043549299 0.0000000094 18.5475773155 -0.0014374753 0.0000000091 18.7475560388 0.0014799806 0.0000000089 18.9475347618 0.0043974389 0.0000000088 19.1475134832 0.0073148978 0.0000000086 19.3474922041 0.0102323568 0.0000000085 19.5474709244 0.0131498159 0.0000000084 19.7474496434 0.0160672749 0.0000000084 -0.2122632601 -0.1133191871 0.0000000000 -0.0122801233 -0.1107221382 0.0000000000 0.1877030147 -0.1081250891 0.0000000000 0.3876861501 -0.1055280400 0.0000000000 0.5876692874 -0.1029309909 0.0000000000 0.7876524237 -0.1003339417 0.0000000000 0.9876355601 -0.0977368927 0.0000000000 1.1876186966 -0.0951398438 0.0000000000 1.3876018310 -0.0925427945 0.0000000000 1.5875849673 -0.0899457459 0.0000000000 1.7875681031 -0.0873486970 0.0000000000 1.9875512387 -0.0847516482 0.0000000000 2.1875343747 -0.0821545996 0.0000000000 2.3875175087 -0.0795575509 0.0000000000 2.5875006446 -0.0769605029 0.0000000000 2.7874837799 -0.0743634547 0.0000000000 2.9874669151 -0.0717664065 0.0000000000 3.1874500505 -0.0691693584 0.0000000000 3.3874331837 -0.0665723105 0.0000000000 3.5874163187 -0.0639752628 0.0000000000 3.7873994531 -0.0613782151 0.0000000000 3.9873825872 -0.0587811675 0.0000000000 4.1873657214 -0.0561841202 0.0000000000 4.3873488529 -0.0535870733 0.0000000000 4.5873319866 -0.0509900269 0.0000000000 4.7873151199 -0.0483929805 0.0000000000 4.9872982529 -0.0457959340 0.0000000000 5.1872813863 -0.0431988874 0.0000000000 5.3872645166 -0.0406018415 0.0000000000 5.5872476498 -0.0380047962 0.0000000000 5.7872307824 -0.0354077518 0.0000000000 5.9872139150 -0.0328107083 0.0000000000 6.1871970480 -0.0302136658 0.0000000000 6.3871801783 -0.0276166249 0.0000000000 6.5871633115 -0.0250195857 0.0000000000
[...]
      <PointData Scalars="radius">
        <DataArray type="Float32" Name="radius" format="ascii">
 0.1000000000 0.1000000000 0.1000000000 0.1000000000 0.1000000000 0.1000000000 0.1000000000 0.1000000000 0.1000000000 0.1000000000 0.1000000000 0.1000000000 0.1000000000 0.1000000000 0.1000000000 0.1000000000 0.1000000000 0.1000000000 0.1000000000 0.1000000000 0.1000000000 0.1000000000 0.1000000000 0.1000000000 0.1000000000 0.1000000000 0.1000000000 0.1000000000 0.1000000000 0.1000000000 0.1000000000 0.1000000000 0.1000000000 0.1000000000 0.1000000000 0.1000000000 0.1000000000 0.1000000000 0.1000000000 0.1000000000 0.1000000000 0.1000000000 0.1000000000 0.1000000000 0.1000000000 0.1000000000 0.1000000000 0.1000000000 0.1000000000 0.1000000000 0.1000000000 0.1000000000 0.1000000000 0.1000000000 0.1000000000 0.1000000000 0.1000000000 0.1000000000 0.1000000000 0.1000000000 0.1000000000 0.1000000000 0.1000000000 0.1000000000 0.1000000000 0.1000000000 0.1000000000 0.1000000000 0.1000000000 0.1000000000 0.1000000000 0.1000000000 0.1000000000 0.1000000000 0.1000000000 0.1000000000 0.1000000000 0.1000000000 0.1000000000 0.1000000000 0.1000000000 0.1000000000 0.1000000000 0.1000000000 0.1000000000 0.1000000000 0.1000000000 0.1000000000 0.1000000000 0.1000000000 0.1000000000 0.1000000000 0.1000000000 0.1000000000 0.1000000000 0.1000000000 0.1000000000 0.1000000000 0.1000000000 0.1000000000 0.1000000000 0.1000000000 0.1000000000 0.1000000000 0.1000000000 0.1000000000 0.1000000000 0.1000000000 0.1000000000 0.1000000000 0.1000000000 0.1000000000 0.1000000000 0.1000000000 0.1000000000 0.1000000000 0.1000000000 0.1000000000 0.1000000000 0.1000000000 0.1000000000 0.1000000000 0.1000000000 0.1000000000 0.1000000000 0.1000000000 0.1000000000 0.1000000000 0.1000000000 0.1000000000 0.1000000000 0.1000000000 0.1000000000 0.1000000000 0.1000000000 0.1000000000 0.1000000000 0.1000000000 0.1000000000 0.1000000000 0.1000000000 0.1000000000 0.1000000000 0.1000000000 0.1000000000 0.1000000000 0.1000000000 0.1000000000 0.1000000000 0.1000000000 0.1000000000 0.1000000000 0.1000000000 0.1000000000 0.1000000000 0.1000000000 0.1000000000 0.1000000000 0.1000000000 0.1000000000 0.1000000000 0.1000000000 0.1000000000 0.1000000000 0.1000000000 0.1000000000 0.1000000000 0.1000000000 0.1000000000 0.1000000000 0.1000000000 0.1000000000 0.1000000000 0.1000000000 0.1000000000 0.1000000000 0.1000000000 0.1000000000 0.1000000000 0.1000000000 0.1000000000 0.1000000000 0.1000000000 0.1000000000 0.1000000000 0.1000000000 0.1000000000 0.1000000000 0.1000000000 0.1000000000 0.1000000000 0.1000000000 0.1000000000 0.1000000000 0.1000000000 0.1000000000 0.1000000000 0.1000000000 0.1000000000 0.1000000000 0.1000000000 0.1000000000 0.1000000000 0.1000000000 0.1000000000 0.1000000000 0.1000000000 0.1000000000 0.1000000000 0.1000000000 0.1000000000 0.1000000000 0.1000000000 0.1000000000 0.1000000000 0.1000000000 0.1000000000 0.1000000000 0.1000000000 0.1000000000 0.1000000000 0.1000000000 0.1000000000 0.1000000000 0.1000000000 0.1000000000 0.1000000000 0.1000000000 0.1000000000 0.1000000000 0.1000000000 0.1000000000 0.1000000000 0.1000000000 0.1000000000 0.1000000000 0.1000000000 0.1000000000 0.1000000000 0.1000000000 0.1000000000 0.1000000000 0.1000000000 0.1000000000 0.1000000000 0.1000000000 0.1000000000 0.1000000000 0.1000000000 0.1000000000 0.1000000000 0.1000000000 0.1000000000 0.1000000000 0.1000000000 0.1000000000 0.1000000000 0.1000000000 0.1000000000 0.1000000000 0.1000000000 0.1000000000 0.1000000000 0.1000000000 0.1000000000 0.1000000000 0.1000000000 0.1000000000 0.1000000000 0.1000000000 0.1000000000 0.1000000000 0.1000000000 0.1000000000 0.1000000000 0.1000000000 0.1000000000 0.1000000000 0.1000000000 0.1000000000 0.1000000000 0.1000000000 0.1000000000 0.1000000000 0.1000000000 0.1000000000 0.1000000000 0.1000000000 0.1000000000 0.1000000000 0.1000000000 0.1000000000 0.1000000000 0.1000000000 0.1000000000 0.1000000000 0.1000000000 0.1000000000 0.1000000000 0.1000000000 0.1000000000 0.1000000000 0.1000000000 0.1000000000 0.1000000000 0.1000000000 0.1000000000 0.1000000000 0.1000000000 0.1000000000 0.1000000000 0.1000000000 0.1000000000 0.1000000000 0.1000000000 0.1000000000 0.1000000000 0.1000000000 0.1000000000 0.1000000000 0.1000000000 0.1000000000 0.1000000000 0.1000000000 0.1000000000 0.1000000000 0.1000000000 0.1000000000 0.1000000000 0.1000000000 0.1000000000 0.1000000000 0.1000000000 0.1000000000 0.1000000000 0.1000000000 0.1000000000 0.1000000000 0.1000000000 0.1000000000 0.1000000000 0.1000000000 0.1000000000 0.1000000000 0.1000000000 0.1000000000 0.1000000000 0.1000000000 0.1000000000 0.1000000000 0.1000000000 0.1000000000 0.1000000000 0.1000000000 0.1000000000 0.1000000000 0.1000000000 0.1000000000 0.1000000000 0.1000000000 0.1000000000 0.1000000000 0.1000000000 0.1000000000 0.1000000000 0.1000000000 0.1000000000 0.1000000000 0.1000000000 0.1000000000 0.1000000000 0.1000000000 0.1000000000 0.1000000000 0.1000000000 0.1000000000 0.1000000000 0.1000000000 0.1000000000 0.1000000000 0.1000000000 0.1000000000 0.1000000000 0.1000000000 0.1000000000 0.1000000000 0.1000000000 0.1000000000 0.1000000000 0.1000000000 0.1000000000 0.1000000000 0.1000000000 0.1000000000 0.1000000000 0.1000000000 0.1000000000 0.1000000000 0.1000000000 0.1000000000 0.1000000000 0.1000000000 0.1000000000 0.1000000000 0.1000000000 0.1000000000 0.1000000000 0.1000000000 0.1000000000 0.1000000000 0.1000000000 0.1000000000 0.1000000000 0.1000000000 0.1000000000 0.1000000000 0.1000000000 0.1000000000 0.1000000000 0.1000000000 0.1000000000 0.1000000000 0.1000000000 0.1000000000 0.1000000000 0.1000000000 0.1000000000 0.1000000000 0.1000000000 0.1000000000 0.1000000000 0.1000000000 0.1000000000 0.1000000000 0.1000000000 0.1000000000 0.1000000000 0.1000000000 0.1000000000 0.1000000000 0.1000000000 0.1000000000 0.1000000000 0.1000000000 0.1000000000 0.1000000000 0.1000000000 0.1000000000 0.1000000000 0.1000000000 0.1000000000 0.1000000000 0.1000000000 0.1000000000 0.1000000000 0.1000000000 0.1000000000 0.1000000000 0.1000000000 0.1000000000 0.1000000000 0.1000000000 0.1000000000 0.1000000000 0.1000000000 0.1000000000 0.1000000000 0.1000000000 0.1000000000 0.1000000000 0.1000000000 0.1000000000 0.1000000000 0.1000000000 0.1000000000 0.1000000000 0.1000000000 0.1000000000 0.1000000000 0.1000000000 0.1000000000 0.1000000000 0.1000000000 0.1000000000 0.1000000000 0.1000000000 0.1000000000 0.1000000000 0.1000000000 0.1000000000 0.1000000000 0.1000000000 0.1000000000 0.1000000000 0.1000000000 0.1000000000 0.1000000000 0.1000000000 0.1000000000 0.1000000000 0.1000000000 0.1000000000 0.1000000000 0.1000000000 0.1000000000 0.1000000000 0.1000000000 0.1000000000 0.1000000000 0.1000000000 0.1000000000 0.1000000000 0.1000000000 0.1000000000 0.1000000000 0.1000000000 0.1000000000 0.1000000000 0.1000000000 0.1000000000 0.1000000000 0.1000000000 0.1000000000 0.1000000000 0.1000000000 0.1000000000 0.1000000000 0.1000000000 0.1000000000 0.1000000000 0.1000000000 0.1000000000 0.1000000000 0.1000000000 0.1000000000 0.1000000000 0.1000000000 0.1000000000 0.1000000000 0.1000000000 0.1000000000 0.1000000000 0.1000000000 0.1000000000 0.1000000000 0.1000000000 0.1000000000 0.1000000000 0.1000000000 0.1000000000 0.1000000000 0.1000000000 0.1000000000 0.1000000000 0.1000000000 0.1000000000 0.1000000000 0.1000000000 0.1000000000 0.1000000000 0.1000000000 0.1000000000 0.1000000000 0.1000000000 0.1000000000 0.1000000000 0.1000000000 0.1000000000 0.1000000000 0.1000000000 0.1000000000 0.1000000000 0.1000000000 0.1000000000 0.1000000000 0.1000000000 0.1000000000 0.1000000000 0.1000000000 0.1000000000 0.1000000000 0.1000000000 0.1000000000 0.1000000000 0.1000000000 0.1000000000 0.1000000000 0.1000000000 0.1000000000 0.1000000000 0.1000000000 0.1000000000 0.1000000000 0.1000000000 0.1000000000 0.1000000000 0.1000000000 0.1000000000 0.1000000000 0.1000000000 0.1000000000 0.1000000000 0.1000000000 0.1000000000 0.1000000000 0.1000000000 0.1000000000 0.1000000000 0.1000000000 0.1000000000 0.1000000000 0.1000000000 0.1000000000 0.1000000000 0.1000000000 0.1000000000 0.1000000000 0.1000000000 0.1000000000 0.1000000000 0.1000000000 0.1000000000 0.1000000000 0.1000000000 0.1000000000 0.1000000000 0.1000000000 0.1000000000 0.1000000000 0.1000000000 0.1000000000 0.1000000000 0.1000000000 0.1000000000 0.1000000000 0.1000000000 0.1000000000 0.1000000000 0.1000000000 0.1000000000 0.1000000000 0.1000000000 0.1000000000 0.1000000000 0.1000000000 0.1000000000 0.1000000000 0.1000000000 0.1000000000 0.1000000000 0.1000000000 0.1000000000 0.1000000000 0.1000000000 0.1000000000 0.1000000000 0.1000000000 0.1000000000 0.1000000000 0.1000000000 0.1000000000 0.1000000000 0.1000000000 0.1000000000 0.1000000000 0.1000000000 0.1000000000 0.1000000000 0.1000000000 0.1000000000 0.1000000000 0.1000000000 0.1000000000 0.1000000000 0.1000000000 0.1000000000 0.1000000000 0.1000000000 0.1000000000 0.1000000000 0.1000000000 0.1000000000 0.1000000000 0.1000000000 0.1000000000 0.1000000000 0.1000000000 0.1000000000 0.1000000000 0.1000000000 0.1000000000 0.1000000000 0.1000000000 0.1000000000 0.1000000000 0.1000000000 0.1000000000 0.1000000000 0.1000000000 0.1000000000 0.1000000000 0.1000000000 0.1000000000 0.1000000000 0.1000000000 0.1000000000 0.1000000000 0.1000000000 0.1000000000 0.1000000000 0.1000000000 0.1000000000 0.1000000000 0.1000000000 0.1000000000 0.1000000000 0.1000000000 0.1000000000 0.1000000000 0.1000000000 0.1000000000 0.1000000000 0.1000000000 0.1000000000 0.1000000000 0.1000000000 0.1000000000 0.1000000000 0.1000000000 0.1000000000 0.1000000000 0.1000000000 0.1000000000 0.1000000000 0.1000000000 0.1000000000 0.1000000000 0.1000000000 0.1000000000 0.1000000000 0.1000000000 0.1000000000 0.1000000000 0.1000000000 0.1000000000 0.1000000000 0.1000000000 0.1000000000 0.1000000000 0.1000000000 0.1000000000 0.1000000000 0.1000000000 0.1000000000 0.1000000000 0.1000000000 0.1000000000 0.1000000000 0.1000000000 0.1000000000 0.1000000000 0.1000000000 0.1000000000 0.1000000000 0.1000000000 0.1000000000 0.1000000000 0.1000000000 0.1000000000 0.1000000000 0.1000000000 0.1000000000 0.1000000000 0.1000000000 0.1000000000 0.1000000000 0.1000000000 0.1000000000 0.1000000000 0.1000000000 0.1000000000 0.1000000000 0.1000000000 0.1000000000 0.1000000000 0.1000000000 0.1000000000 0.1000000000 0.1000000000 0.1000000000 0.1000000000 0.1000000000 0.1000000000 0.1000000000 0.1000000000 0.1000000000 0.1000000000 0.1000000000 0.1000000000 0.1000000000 0.1000000000 0.1000000000 0.1000000000 0.1000000000 0.1000000000 0.1000000000 0.1000000000 0.1000000000 0.1000000000 0.1000000000 0.1000000000 0.1000000000 0.1000000000 0.1000000000 0.1000000000 0.1000000000 0.1000000000 0.1000000000 0.1000000000 0.1000000000 0.1000000000 0.1000000000 0.1000000000 0.1000000000 0.1000000000 0.1000000000 0.1000000000 0.1000000000 0.1000000000 0.1000000000 0.1000000000 0.1000000000 0.1000000000 0.1000000000 0.1000000000 0.1000000000 0.1000000000 0.1000000000 0.1000000000 0.1000000000 0.1000000000 0.1000000000 0.1000000000 0.1000000000 0.1000000000 0.1000000000 0.1000000000 0.1000000000 0.1000000000 0.1000000000 0.1000000000 0.1000000000 0.1000000000 0.1000000000 0.1000000000 0.1000000000 0.1000000000 0.1000000000 0.1000000000 0.1000000000 0.1000000000 0.1000000000 0.1000000000 0.1000000000 0.1000000000 0.1000000000 0.1000000000 0.1000000000 0.1000000000 0.1000000000 0.1000000000 0.1000000000 0.1000000000 0.1000000000 0.1000000000 0.1000000000 0.1000000000 0.1000000000 0.1000000000 0.1000000000 0.1000000000 0.1000000000 0.1000000000 0.1000000000 0.1000000000 0.1000000000 0.1000000000 0.1000000000 0.1000000000 0.1000000000 0.1000000000 0.1000000000 0.1000000000 0.1000000000 0.1000000000 0.1000000000 0.1000000000 0.1000000000 0.1000000000 0.1000000000 0.1000000000 0.1000000000 0.1000000000 0.1000000000 0.1000000000 0.1000000000 0.1000000000 0.1000000000 0.1000000000 0.1000000000 0.1000000000 0.1000000000 0.1000000000 0.1000000000 0.1000000000 0.1000000000 0.1000000000 0.1000000000 0.1000000000 0.1000000000 0.1000000000 0.1000000000 0.1000000000 0.1000000000 0.1000000000 0.1000000000 0.1000000000 0.1000000000 0.1000000000 0.1000000000 0.1000000000 0.1000000000 0.1000000000 0.1000000000 0.1000000000 0.1000000000 0.1000000000 0.1000000000 0.1000000000 0.1000000000 0.1000000000 0.1000000000 0.1000000000 0.1000000000 0.1000000000 0.1000000000 0.1000000000 0.1000000000 0.1000000000 0.1000000000 0.1000000000 0.1000000000 0.1000000000 0.1000000000 0.1000000000 0.1000000000 0.1000000000 0.1000000000 0.1000000000 0.1000000000 0.1000000000 0.1000000000 0.1000000000 0.1000000000 0.1000000000 0.1000000000 0.1000000000 0.1000000000 0.1000000000 0.1000000000 0.1000000000 0.1000000000 0.1000000000 0.1000000000 0.1000000000 0.1000000000 0.1000000000 0.1000000000 0.1000000000 0.1000000000 0.1000000000 0.1000000000 0.1000000000 0.1000000000 0.1000000000 0.1000000000 0.1000000000 0.1000000000 0.1000000000 0.1000000000 0.1000000000 0.1000000000 0.1000000000 0.1000000000 0.1000000000 0.1000000000 0.1000000000 0.1000000000 0.1000000000 0.1000000000 0.1000000000 0.1000000000 0.1000000000 0.1000000000 0.1000000000 0.1000000000 0.1000000000 0.1000000000 0.1000000000 0.1000000000 0.1000000000 0.1000000000 0.1000000000 0.1000000000 0.1000000000 0.1000000000 0.1000000000 0.1000000000 0.1000000000 0.1000000000 0.1000000000 0.1000000000 0.1000000000 0.1000000000 0.1000000000 0.1000000000 0.1000000000 0.1000000000 0.1000000000 0.1000000000 0.1000000000 0.1000000000 0.1000000000 0.1000000000 0.1000000000 0.1000000000 0.1000000000 0.1000000000 0.1000000000 0.1000000000 0.1000000000 0.1000000000 0.1000000000 0.1000000000 0.1000000000 0.1000000000 0.1000000000 0.1000000000 0.1000000000 0.1000000000 0.1000000000 0.1000000000 0.1000000000 0.1000000000 0.1000000000 0.1000000000 0.1000000000 0.1000000000 0.1000000000 0.1000000000 0.1000000000 0.1000000000 0.1000000000 0.1000000000 0.1000000000 0.1000000000 0.1000000000 0.1000000000 0.1000000000 0.1000000000 0.1000000000 0.1000000000 0.1000000000 0.1000000000 0.1000000000 0.1000000000 0.1000000000 0.1000000000 0.1000000000 0.1000000000 0.1000000000 0.1000000000 0.1000000000 0.1000000000 0.1000000000 0.1000000000 0.1000000000 0.1000000000 0.1000000000 0.1000000000 0.1000000000 0.1000000000 0.1000000000 0.1000000000 0.1000000000 0.1000000000 0.1000000000 0.1000000000 0.1000000000 0.1000000000 0.1000000000 0.1000000000 0.1000000000 0.1000000000 0.1000000000 0.1000000000 0.1000000000 0.1000000000 0.1000000000 0.1000000000 0.1000000000 0.1000000000 0.1000000000 0.1000000000 0.1000000000 0.1000000000 0.1000000000 0.1000000000 0.1000000000 0.1000000000 0.1000000000 0.1000000000 0.1000000000 0.1000000000 0.1000000000 0.1000000000 0.1000000000 0.1000000000 0.1000000000 0.1000000000 0.1000000000 0.1000000000 0.1000000000 0.1000000000 0.1000000000 0.1000000000 0.1000000000 0.1000000000 0.1000000000 0.1000000000 0.1000000000 0.1000000000 0.1000000000 0.1000000000 0.1000000000 0.1000000000 0.1000000000 0.1000000000 0.1000000000 0.1000000000 0.1000000000 0.1000000000 0.1000000000 0.1000000000 0.1000000000 0.1000000000 0.1000000000 0.1000000000 0.1000000000 0.1000000000 0.1000000000 0.1000000000 0.1000000000 0.1000000000 0.1000000000 0.1000000000 0.1000000000 0.1000000000 0.1000000000 0.1000000000 0.1000000000 0.1000000000 0.1000000000 0.1000000000 0.1000000000 0.1000000000 0.1000000000 0.1000000000 0.1000000000 0.1000000000 0.1000000000 0.1000000000 0.1000000000 0.1000000000 0.1000000000 0.1000000000 0.1000000000 0.1000000000 0.1000000000 0.1000000000 0.1000000000 0.1000000000 0.1000000000 0.1000000000 0.1000000000 0.1000000000 0.1000000000 0.1000000000 0.1000000000 0.1000000000 0.1000000000 0.1000000000 0.1000000000 0.1000000000 0.1000000000 0.1000000000 0.1000000000 0.1000000000 0.1000000000 0.1000000000 0.1000000000 0.1000000000 0.1000000000 0.1000000000 0.1000000000 0.1000000000 0.1000000000 0.1000000000 0.1000000000 0.1000000000 0.1000000000 0.1000000000 0.1000000000 0.1000000000 0.1000000000 0.1000000000 0.1000000000 0.1000000000 0.1000000000 0.1000000000 0.1000000000 0.1000000000 0.1000000000 0.1000000000 0.1000000000 0.1000000000 0.1000000000 0.1000000000 0.1000000000 0.1000000000 0.1000000000 0.1000000000 0.1000000000 0.1000000000 0.1000000000 0.1000000000 0.1000000000 0.1000000000 0.1000000000 0.1000000000 0.1000000000 0.1000000000 0.1000000000 0.1000000000 0.1000000000 0.1000000000 0.1000000000 0.1000000000 0.1000000000 0.1000000000 0.1000000000 0.1000000000 0.1000000000 0.1000000000 0.1000000000 0.1000000000 0.1000000000 0.1000000000 0.1000000000 0.1000000000 0.1000000000 0.1000000000 0.1000000000 0.1000000000 0.1000000000 0.1000000000 0.1000000000 0.1000000000 0.1000000000 0.1000000000 0.1000000000 0.1000000000 0.1000000000 0.1000000000 0.1000000000 0.1000000000 0.1000000000 0.1000000000 0.1000000000 0.1000000000 0.1000000000 0.1000000000 0.1000000000 0.1000000000 0.1000000000 0.1000000000 0.1000000000 0.1000000000 0.1000000000 0.1000000000 0.1000000000 0.1000000000 0.1000000000 0.1000000000 0.1000000000 0.1000000000 0.1000000000 0.1000000000 0.1000000000 0.1000000000 0.1000000000 0.1000000000 0.1000000000 0.1000000000 0.1000000000 0.1000000000 0.1000000000 0.1000000000 0.1000000000 0.1000000000 0.1000000000 0.1000000000 0.1000000000 0.1000000000 0.1000000000 0.1000000000 0.1000000000 0.1000000000 0.1000000000 0.1000000000 0.1000000000 0.1000000000 0.1000000000 0.1000000000 0.1000000000 0.1000000000 0.1000000000 0.1000000000 0.1000000000 0.1000000000 0.1000000000 0.1000000000 0.1000000000 0.1000000000 0.1000000000 0.1000000000 0.1000000000 0.1000000000 0.1000000000 0.1000000000 0.1000000000 0.1000000000 0.1000000000 0.1000000000 0.1000000000 0.1000000000 0.1000000000 0.1000000000 0.1000000000 0.1000000000 0.1000000000 0.1000000000 0.1000000000 0.1000000000 0.1000000000 0.1000000000 0.1000000000 0.1000000000 0.1000000000 0.1000000000 0.1000000000 0.1000000000 0.1000000000 0.1000000000 0.1000000000 0.1000000000 0.1000000000 0.1000000000 0.1000000000 0.1000000000 0.1000000000 0.1000000000 0.1000000000 0.1000000000 0.1000000000 0.1000000000 0.1000000000 0.1000000000 0.1000000000 0.1000000000 0.1000000000 0.1000000000 0.1000000000 0.1000000000 0.1000000000 0.1000000000 0.1000000000 0.1000000000 0.1000000000 0.1000000000 0.1000000000 0.1000000000 0.1000000000 0.1000000000 0.1000000000 0.1000000000 0.1000000000 0.1000000000 0.1000000000 0.1000000000 0.1000000000 0.1000000000 0.1000000000 0.1000000000 0.1000000000 0.1000000000 0.1000000000 0.1000000000 0.1000000000 0.1000000000 0.1000000000 0.1000000000 0.1000000000 0.1000000000 0.1000000000 0.1000000000 0.1000000000 0.1000000000 0.1000000000 0.1000000000 0.1000000000 0.1000000000 0.1000000000 0.1000000000 0.1000000000 0.1000000000 0.1000000000 0.1000000000 0.1000000000 0.1000000000 0.1000000000 0.1000000000 0.1000000000 0.1000000000 0.1000000000 0.1000000000 0.1000000000 0.1000000000 0.1000000000 0.1000000000 0.1000000000 0.1000000000 0.1000000000 0.1000000000 0.1000000000 0.1000000000 0.1000000000 0.1000000000 0.1000000000 0.1000000000 0.1000000000 0.1000000000 0.1000000000 0.1000000000 0.1000000000 0.1000000000 0.1000000000 0.1000000000 0.1000000000 0.1000000000 0.1000000000 0.1000000000 0.1000000000 0.1000000000 0.1000000000 0.1000000000 0.1000000000 0.1000000000 0.1000000000 0.1000000000 0.1000000000 0.1000000000 0.1000000000 0.1000000000 0.1000000000 0.1000000000 0.1000000000 0.1000000000 0.1000000000 0.1000000000 0.1000000000 0.1000000000 0.1000000000 0.1000000000 0.1000000000 0.1000000000 0.1000000000 0.1000000000 0.1000000000 0.1000000000 0.1000000000 0.1000000000 0.1000000000 0.1000000000 0.1000000000 0.1000000000 0.1000000000 0.1000000000 0.1000000000 0.1000000000 0.1000000000 0.1000000000 0.1000000000 0.1000000000 0.1000000000 0.1000000000 0.1000000000 0.1000000000 0.1000000000 0.1000000000 0.1000000000 0.1000000000 0.1000000000 0.1000000000 0.1000000000 0.1000000000 0.1000000000 0.1000000000 0.1000000000 0.1000000000 0.10000000