<?xml version="1.0"?>
<VTKFile type="UnstructuredGrid" version="0.1" byte_order="LittleEndian">
  <UnstructuredGrid>
    <FieldData>
      <DataArray type="Float32" Name="TIME"  NumberOfTuples="1" format="ascii"> 1.8000000000 </DataArray>
      <DataArray type="Int32"   Name="STEP"  NumberOfTuples="1" format="ascii"> 450000 </DataArray>
    </FieldData>
    <Piece NumberOfPoints="11600" NumberOfCells="11600">
      <Points>
        <DataArray type="Float32" NumberOfComponents="3" format="ascii">
 -0.2982118478 -0.6170538665 -0.0000009956 -0.0982401270 -0.6136907703 -0.0000009425 0.1017315966 -0.6103276741 -0.0000008878 0.3017033179 -0.6069645778 -0.0000008243 0.5016750417 -0.6036014811 -0.0000007574 0.7016467639 -0.6002383848 -0.0000006840 0.9016184862 -0.5968752883 -0.0000006019 1.1015902096 -0.5935121921 -0.0000005105 1.3015619315 -0.5901490955 -0.0000003964 1.5015336551 -0.5867859989 -0.0000002743 1.7015053775 -0.5834229023 -0.0000001445 1.9014771002 -0.5800598060 -0.0000000093 2.1014488237 -0.5766967097 0.0000001281 2.3014205469 -0.5733336133 0.0000002708 2.5013922707 -0.5699705167 0.0000004023 2.7013639937 -0.5666074203 0.0000005296 2.9013357166 -0.5632443239 0.0000006523 3.1013074405 -0.5598812276 0.0000007705 3.3012791653 -0.5565181309 0.0000008787 3.5012508894 -0.5531550339 0.0000009841 3.7012226125 -0.5497919372 0.0000010851 3.9011943358 -0.5464288404 0.0000011810 4.1011660599 -0.5430657438 0.0000012711 4.3011377860 -0.5397026467 0.0000013508 4.5011095099 -0.5363395492 0.0000014159 4.7010812334 -0.5329764521 0.0000014714 4.9010529568 -0.5296133547 0.0000015156 5.1010246810 -0.5262502576 0.0000015479 5.3009964071 -0.5228871601 0.0000015612 5.5009681313 -0.5195240621 0.0000015526 5.7009398549 -0.5161609643 0.0000015310 5.9009115784 -0.5127978664 0.0000014963 6.1008833025 -0.5094347689 0.0000014495 6.3008550293 -0.5060716708 0.0000013888 6.5008267535 -0.5027085724 0.0000013080 6.7007984770 -0.4993454741 0.0000012189 6.9007702006 -0.4959823759 0.0000011231 7.1007419249 -0.4926192780 0.0000010231 7.3007136526 -0.4892561794 0.0000009206 7.5006853770 -0.4858930803 0.0000008159 7.7006571008 -0.4825299814 0.0000007100 7.9006288245 -0.4791668825 0.0000006024 8.1006005488 -0.4758037840 0.0000004918 8.3005722770 -0.4724406848 0.0000003691 8.5005440013 -0.4690775848 0.0000002439 8.7005157250 -0.4657144853 0.0000001135 8.9004874488 -0.4623513857 -0.0000000216 9.1004591733 -0.4589882864 -0.0000001595 9.3004309009 -0.4556251867 -0.0000003090 9.5004026252 -0.4522620862 -0.0000004425 9.7003743489 -0.4488989862 -0.0000005683 9.9003460726 -0.4455358860 -0.0000006818 10.1003177968 -0.4421727860 -0.0000007805 10.3002895247 -0.4388096855 -0.0000008578 10.5002612486 -0.4354465842 -0.0000009060 10.7002329722 -0.4320834833 -0.0000009392 10.9002046954 -0.4287203822 -0.0000009583 11.1001764198 -0.4253572814 -0.0000009663 11.3001481455 -0.4219941801 -0.0000009528 11.5001198697 -0.4186310784 -0.0000009364 11.7000915927 -0.4152679769 -0.0000009142 11.9000633158 -0.4119048753 -0.0000008866 12.1000350399 -0.4085417738 -0.0000008544 12.3000067640 -0.4051786716 -0.0000008033 12.4999784881 -0.4018155693 -0.0000007590 12.6999502114 -0.3984524672 -0.0000006992 12.8999219348 -0.3950893639 -0.0000006466 13.0998936584 -0.3917262616 -0.0000005922 13.2998653802 -0.3883631588 -0.0000005279 13.4998371055 -0.3850000558 -0.0000004687 13.6998088270 -0.3816369505 -0.0000004061 13.9263170433 -0.3717857670 0.0000000000 14.1263160674 -0.3724103607 0.0000000000 14.3263150913 -0.3730349542 0.0000000000 14.5263141180 -0.3736595471 0.0000000000 14.7263131421 -0.3742841409 0.0000000000 14.9263121673 -0.3749087339 0.0000000000 15.1263111925 -0.3755333276 0.0000000000 15.3263102168 -0.3761579209 0.0000000000 15.5263092429 -0.3767825144 0.0000000000 15.7263082673 -0.3774071079 0.0000000000 15.9263072928 -0.3780317013 0.0000000000 16.1263063179 -0.3786562943 0.0000000000 16.3849909904 -0.2804199880 -0.0000000322 16.5849507907 -0.2764102133 -0.0000000316 16.7849105896 -0.2724004394 -0.0000000310 16.9848703907 -0.2683906653 -0.0000000304 17.1848301906 -0.2643808914 -0.0000000298 17.3847899903 -0.2603711174 -0.0000000293 17.5847497913 -0.2563613436 -0.0000000288 17.7847095905 -0.2523515697 -0.0000000283 17.9846693912 -0.2483417956 -0.0000000279 18.1846291912 -0.2443320216 -0.0000000275 18.3845889910 -0.2403222475 -0.0000000271 18.5845487923 -0.2363124737 -0.0000000266 18.7845085914 -0.2323026999 -0.0000000262 18.9844683927 -0.2282929256 -0.0000000257 19.1844281928 -0.2242831516 -0.0000000251 19.3843879928 -0.2202733776 -0.0000000246 19.5843477923 -0.2162636033 -0.0000000240 -0.2011385137 -0.4421917283 -0.0000009234 -0.0011667926 -0.4388286325 -0.0000008715 0.1988049303 -0.4354655360 -0.0000008165 0.3987766535 -0.4321024397 -0.0000007554 0.5987483757 -0.4287393432 -0.0000006891 0.7987200980 -0.4253762466 -0.0000006155 0.9986918203 -0.4220131500 -0.0000005329 1.1986635435 -0.4186500535 -0.0000004379 1.3986352668 -0.4152869572 -0.0000003272 1.5986069893 -0.4119238606 -0.0000002071 1.7985787120 -0.4085607642 -0.0000000806 1.9985504348 -0.4051976676 0.0000000504 2.1985221584 -0.4018345712 0.0000001836 2.3984938823 -0.3984714749 0.0000003153 2.5984656052 -0.3951083784 0.0000004436 2.7984373283 -0.3917452819 0.0000005687 2.9984090515 -0.3883821854 0.0000006904 3.1983807757 -0.3850190890 0.0000008074 3.3983525002 -0.3816559923 0.0000009181 3.5983242236 -0.3782928955 0.0000010241 3.7982959471 -0.3749297987 0.0000011246 3.9982676707 -0.3715667019 0.0000012186 4.1982393954 -0.3682036053 0.0000013038 4.3982111202 -0.3648405080 0.0000013749 4.5981828439 -0.3614774106 0.0000014345 4.7981545675 -0.3581143133 0.0000014833 4.9981262913 -0.3547512160 0.0000015202 5.1980980162 -0.3513881190 0.0000015424 5.3980697411 -0.3480250210 0.0000015427 5.5980414649 -0.3446619233 0.0000015266 5.7980131886 -0.3412988254 0.0000014965 5.9979849125 -0.3379357276 0.0000014530 6.1979566376 -0.3345726301 0.0000013953 6.3979283627 -0.3312095315 0.0000013190 6.5979000865 -0.3278464332 0.0000012308 6.7978718106 -0.3244833351 0.0000011351 6.9978435347 -0.3211202369 0.0000010346 7.1978152600 -0.3177571390 0.0000009315 7.3977869855 -0.3143940398 0.0000008272 7.5977587096 -0.3110309409 0.0000007225 7.7977304338 -0.3076678420 0.0000006173 7.9977021580 -0.3043047432 0.0000005105 8.1976738835 -0.3009416447 0.0000003997 8.3976456091 -0.2975785447 0.0000002824 8.5976173332 -0.2942154451 0.0000001606 8.7975890574 -0.2908523455 0.0000000343 8.9975607815 -0.2874892461 -0.0000000957 9.1975325070 -0.2841261469 -0.0000002288 9.3975042325 -0.2807630464 -0.0000003596 9.5974759567 -0.2773999463 -0.0000004830 9.7974476807 -0.2740368461 -0.0000005965 9.9974194048 -0.2706737461 -0.0000006971 10.1973911301 -0.2673106462 -0.0000007811 10.3973628554 -0.2639475447 -0.0000008402 10.5973345793 -0.2605844437 -0.0000008814 10.7973063032 -0.2572213429 -0.0000009089 10.9972780268 -0.2538582419 -0.0000009247 11.1972497514 -0.2504951410 -0.0000009292 11.3972214761 -0.2471320393 -0.0000009224 11.5971931996 -0.2437689377 -0.0000009102 11.7971649231 -0.2404058363 -0.0000008934 11.9971366461 -0.2370427346 -0.0000008718 12.1971083703 -0.2336796328 -0.0000008433 12.3970800942 -0.2303165309 -0.0000008080 12.5970518177 -0.2269534285 -0.0000007680 12.7970235412 -0.2235903261 -0.0000007233 12.9969952636 -0.2202272237 -0.0000006765 13.1969669872 -0.2168641204 -0.0000006254 13.3969387101 -0.2135010185 -0.0000005698 13.5969104326 -0.2101379145 -0.0000005118 13.8268584424 -0.1982692373 0.0000000000 14.0268574684 -0.1988938290 0.0000000000 14.2268564934 -0.1995184222 0.0000000000 14.4268555184 -0.2001430160 0.0000000000 14.6268545435 -0.2007676093 0.0000000000 14.8268535685 -0.2013922029 0.0000000000 15.0268525934 -0.2020167964 0.0000000000 15.2268516182 -0.2026413896 0.0000000000 15.4268506436 -0.2032659835 0.0000000000 15.6268496686 -0.2038905764 0.0000000000 15.8268486939 -0.2045151697 0.0000000000 16.0268477163 -0.2051397653 0.0000000000 16.2815385247 -0.1092546099 -0.0000000314 16.4814983233 -0.1052448352 -0.0000000307 16.6814581238 -0.1012350606 -0.0000000301 16.8814179243 -0.0972252866 -0.0000000295 17.0813777244 -0.0932155125 -0.0000000289 17.2813375245 -0.0892057386 -0.0000000284 17.4812973245 -0.0851959648 -0.0000000278 17.6812571248 -0.0811861906 -0.0000000274 17.8812169251 -0.0771764167 -0.0000000269 18.0811767251 -0.0731666428 -0.0000000265 18.2811365252 -0.0691568689 -0.0000000261 18.4810963253 -0.0651470952 -0.0000000257 18.6810561259 -0.0611373209 -0.0000000252 18.8810159265 -0.0571275471 -0.0000000247 19.0809757266 -0.0531177731 -0.0000000242 19.2809355267 -0.0491079991 -0.0000000237 19.4808953268 -0.0450982251 -0.0000000231 19.6808551259 -0.0410884511 -0.0000000226 -0.3040369018 -0.2706926856 -0.0000009015 -0.1040651802 -0.2673295894 -0.0000008525 0.0959065430 -0.2639664931 -0.0000008023 0.2958782642 -0.2606033967 -0.0000007481 0.4958499875 -0.2572403003 -0.0000006885 0.6958217098 -0.2538772038 -0.0000006230 0.8957934323 -0.2505141073 -0.0000005498 1.0957651555 -0.2471510109 -0.0000004672 1.2957368776 -0.2437879141 -0.0000003710 1.4957086009 -0.2404248180 -0.0000002621 1.6956803238 -0.2370617215 -0.0000001454 1.8956520465 -0.2336986250 -0.0000000230 2.0956237699 -0.2303355287 0.0000001028 2.2955954928 -0.2269724320 0.0000002303 2.4955672165 -0.2236093358 0.0000003574 2.6955389397 -0.2202462394 0.0000004834 2.8955106630 -0.2168831430 0.0000006079 3.0954823865 -0.2135200466 0.0000007302 3.2954541106 -0.2101569498 0.0000008479 3.4954258345 -0.2067938532 0.0000009598 3.6953975581 -0.2034307564 0.0000010659 3.8953692817 -0.2000676596 0.0000011649 4.0953410055 -0.1967045629 0.0000012555 4.2953127304 -0.1933414657 0.0000013334 4.4952844543 -0.1899783685 0.0000013973 4.6952561781 -0.1866152713 0.0000014504 4.8952279018 -0.1832521741 0.0000014919 5.0951996259 -0.1798890767 0.0000015207 5.2951713507 -0.1765259793 0.0000015309 5.4951430748 -0.1731628814 0.0000015211 5.6951147987 -0.1697997836 0.0000014963 5.8950865225 -0.1664366859 0.00000145
[...]
      <PointData Scalars="radius">
        <DataArray type="Float32" Name="radius" format="ascii">
 0.1000000000 0.1000000000 0.1000000000 0.1000000000 0.1000000000 0.1000000000 0.1000000000 0.1000000000 0.1000000000 0.1000000000 0.1000000000 0.1000000000 0.1000000000 0.1000000000 0.1000000000 0.1000000000 0.1000000000 0.1000000000 0.1000000000 0.1000000000 0.1000000000 0.1000000000 0.1000000000 0.1000000000 0.1000000000 0.1000000000 0.1000000000 0.1000000000 0.1000000000 0.1000000000 0.1000000000 0.1000000000 0.1000000000 0.1000000000 0.1000000000 0.1000000000 0.1000000000 0.1000000000 0.1000000000 0.1000000000 0.1000000000 0.1000000000 0.1000000000 0.1000000000 0.1000000000 0.1000000000 0.1000000000 0.1000000000 0.1000000000 0.1000000000 0.1000000000 0.1000000000 0.1000000000 0.1000000000 0.1000000000 0.1000000000 0.1000000000 0.1000000000 0.1000000000 0.1000000000 0.1000000000 0.1000000000 0.1000000000 0.1000000000 0.1000000000 0.1000000000 0.1000000000 0.1000000000 0.1000000000 0.1000000000 0.1000000000 0.1000000000 0.1000000000 0.1000000000 0.1000000000 0.1000000000 0.1000000000 0.1000000000 0.1000000000 0.1000000000 0.1000000000 0.1000000000 0.1000000000 0.1000000000 0.1000000000 0.1000000000 0.1000000000 0.1000000000 0.1000000000 0.1000000000 0.1000000000 0.1000000000 0.1000000000 0.1000000000 0.1000000000 0.1000000000 0.1000000000 0.1000000000 0.1000000000 0.1000000000 0.1000000000 0.1000000000 0.1000000000 0.1000000000 0.1000000000 0.1000000000 0.1000000000 0.1000000000 0.1000000000 0.1000000000 0.1000000000 0.1000000000 0.1000000000 0.1000000000 0.1000000000 0.1000000000 0.1000000000 0.1000000000 0.1000000000 0.1000000000 0.1000000000 0.1000000000 0.1000000000 0.1000000000 0.1000000000 0.1000000000 0.1000000000 0.1000000000 0.1000000000 0.1000000000 0.1000000000 0.1000000000 0.1000000000 0.1000000000 0.1000000000 0.1000000000 0.1000000000 0.1000000000 0.1000000000 0.1000000000 0.1000000000 0.1000000000 0.1000000000 0.1000000000 0.1000000000 0.1000000000 0.1000000000 0.1000000000 0.1000000000 0.1000000000 0.1000000000 0.1000000000 0.1000000000 0.1000000000 0.1000000000 0.1000000000 0.1000000000 0.1000000000 0.1000000000 0.1000000000 0.1000000000 0.1000000000 0.1000000000 0.1000000000 0.1000000000 0.1000000000 0.1000000000 0.1000000000 0.1000000000 0.1000000000 0.1000000000 0.1000000000 0.1000000000 0.1000000000 0.1000000000 0.1000000000 0.1000000000 0.1000000000 0.1000000000 0.1000000000 0.1000000000 0.1000000000 0.1000000000 0.1000000000 0.1000000000 0.1000000000 0.1000000000 0.1000000000 0.1000000000 0.1000000000 0.1000000000 0.1000000000 0.1000000000 0.1000000000 0.1000000000 0.1000000000 0.1000000000 0.1000000000 0.1000000000 0.1000000000 0.1000000000 0.1000000000 0.1000000000 0.1000000000 0.1000000000 0.1000000000 0.1000000000 0.1000000000 0.1000000000 0.1000000000 0.1000000000 0.1000000000 0.1000000000 0.1000000000 0.1000000000 0.1000000000 0.1000000000 0.1000000000 0.1000000000 0.1000000000 0.1000000000 0.1000000000 0.1000000000 0.1000000000 0.1000000000 0.1000000000 0.1000000000 0.1000000000 0.1000000000 0.1000000000 0.1000000000 0.1000000000 0.1000000000 0.1000000000 0.1000000000 0.1000000000 0.1000000000 0.1000000000 0.1000000000 0.1000000000 0.1000000000 0.1000000000 0.1000000000 0.1000000000 0.1000000000 0.1000000000 0.1000000000 0.1000000000 0.1000000000 0.1000000000 0.1000000000 0.1000000000 0.1000000000 0.1000000000 0.1000000000 0.1000000000 0.1000000000 0.1000000000 0.1000000000 0.1000000000 0.1000000000 0.1000000000 0.1000000000 0.1000000000 0.1000000000 0.1000000000 0.1000000000 0.1000000000 0.1000000000 0.1000000000 0.1000000000 0.1000000000 0.1000000000 0.1000000000 0.1000000000 0.1000000000 0.1000000000 0.1000000000 0.1000000000 0.1000000000 0.1000000000 0.1000000000 0.1000000000 0.1000000000 0.1000000000 0.1000000000 0.1000000000 0.1000000000 0.1000000000 0.1000000000 0.1000000000 0.1000000000 0.1000000000 0.1000000000 0.1000000000 0.1000000000 0.1000000000 0.1000000000 0.1000000000 0.1000000000 0.1000000000 0.1000000000 0.1000000000 0.1000000000 0.1000000000 0.1000000000 0.1000000000 0.1000000000 0.1000000000 0.1000000000 0.1000000000 0.1000000000 0.1000000000 0.1000000000 0.1000000000 0.1000000000 0.1000000000 0.1000000000 0.1000000000 0.1000000000 0.1000000000 0.1000000000 0.1000000000 0.1000000000 0.1000000000 0.1000000000 0.1000000000 0.1000000000 0.1000000000 0.1000000000 0.1000000000 0.1000000000 0.1000000000 0.1000000000 0.1000000000 0.1000000000 0.1000000000 0.1000000000 0.1000000000 0.1000000000 0.1000000000 0.1000000000 0.1000000000 0.1000000000 0.1000000000 0.1000000000 0.1000000000 0.1000000000 0.1000000000 0.1000000000 0.1000000000 0.1000000000 0.1000000000 0.1000000000 0.1000000000 0.1000000000 0.1000000000 0.1000000000 0.1000000000 0.1000000000 0.1000000000 0.1000000000 0.1000000000 0.1000000000 0.1000000000 0.1000000000 0.1000000000 0.1000000000 0.1000000000 0.1000000000 0.1000000000 0.1000000000 0.1000000000 0.1000000000 0.1000000000 0.1000000000 0.1000000000 0.1000000000 0.1000000000 0.1000000000 0.1000000000 0.1000000000 0.1000000000 0.1000000000 0.1000000000 0.1000000000 0.1000000000 0.1000000000 0.1000000000 0.1000000000 0.1000000000 0.1000000000 0.1000000000 0.1000000000 0.1000000000 0.1000000000 0.1000000000 0.1000000000 0.1000000000 0.1000000000 0.1000000000 0.1000000000 0.1000000000 0.1000000000 0.1000000000 0.1000000000 0.1000000000 0.1000000000 0.1000000000 0.1000000000 0.1000000000 0.1000000000 0.1000000000 0.1000000000 0.1000000000 0.1000000000 0.1000000000 0.1000000000 0.1000000000 0.1000000000 0.1000000000 0.1000000000 0.1000000000 0.1000000000 0.1000000000 0.1000000000 0.1000000000 0.1000000000 0.1000000000 0.1000000000 0.1000000000 0.1000000000 0.1000000000 0.1000000000 0.1000000000 0.1000000000 0.1000000000 0.1000000000 0.1000000000 0.1000000000 0.1000000000 0.1000000000 0.1000000000 0.1000000000 0.1000000000 0.1000000000 0.1000000000 0.1000000000 0.1000000000 0.1000000000 0.1000000000 0.1000000000 0.1000000000 0.1000000000 0.1000000000 0.1000000000 0.1000000000 0.1000000000 0.1000000000 0.1000000000 0.1000000000 0.1000000000 0.1000000000 0.1000000000 0.1000000000 0.1000000000 0.1000000000 0.1000000000 0.1000000000 0.1000000000 0.1000000000 0.1000000000 0.1000000000 0.1000000000 0.1000000000 0.1000000000 0.1000000000 0.1000000000 0.1000000000 0.1000000000 0.1000000000 0.1000000000 0.1000000000 0.1000000000 0.1000000000 0.1000000000 0.1000000000 0.1000000000 0.1000000000 0.1000000000 0.1000000000 0.1000000000 0.1000000000 0.1000000000 0.1000000000 0.1000000000 0.1000000000 0.1000000000 0.1000000000 0.1000000000 0.1000000000 0.1000000000 0.1000000000 0.1000000000 0.1000000000 0.1000000000 0.1000000000 0.1000000000 0.1000000000 0.1000000000 0.1000000000 0.1000000000 0.1000000000 0.1000000000 0.1000000000 0.1000000000 0.1000000000 0.1000000000 0.1000000000 0.1000000000 0.1000000000 0.1000000000 0.1000000000 0.1000000000 0.1000000000 0.1000000000 0.1000000000 0.1000000000 0.1000000000 0.1000000000 0.1000000000 0.1000000000 0.1000000000 0.1000000000 0.1000000000 0.1000000000 0.1000000000 0.1000000000 0.1000000000 0.1000000000 0.1000000000 0.1000000000 0.1000000000 0.1000000000 0.1000000000 0.1000000000 0.1000000000 0.1000000000 0.1000000000 0.1000000000 0.1000000000 0.1000000000 0.1000000000 0.1000000000 0.1000000000 0.1000000000 0.1000000000 0.1000000000 0.1000000000 0.1000000000 0.1000000000 0.1000000000 0.1000000000 0.1000000000 0.1000000000 0.1000000000 0.1000000000 0.1000000000 0.1000000000 0.1000000000 0.1000000000 0.1000000000 0.1000000000 0.1000000000 0.1000000000 0.1000000000 0.1000000000 0.1000000000 0.1000000000 0.1000000000 0.1000000000 0.1000000000 0.1000000000 0.1000000000 0.1000000000 0.1000000000 0.1000000000 0.1000000000 0.1000000000 0.1000000000 0.1000000000 0.1000000000 0.1000000000 0.1000000000 0.1000000000 0.1000000000 0.1000000000 0.1000000000 0.1000000000 0.1000000000 0.1000000000 0.1000000000 0.1000000000 0.1000000000 0.1000000000 0.1000000000 0.1000000000 0.1000000000 0.1000000000 0.1000000000 0.1000000000 0.1000000000 0.1000000000 0.1000000000 0.1000000000 0.1000000000 0.1000000000 0.1000000000 0.1000000000 0.1000000000 0.1000000000 0.1000000000 0.1000000000 0.1000000000 0.1000000000 0.1000000000 0.1000000000 0.1000000000 0.1000000000 0.1000000000 0.1000000000 0.1000000000 0.1000000000 0.1000000000 0.1000000000 0.1000000000 0.1000000000 0.1000000000 0.1000000000 0.1000000000 0.1000000000 0.1000000000 0.1000000000 0.1000000000 0.1000000000 0.1000000000 0.1000000000 0.1000000000 0.1000000000 0.1000000000 0.1000000000 0.1000000000 0.1000000000 0.1000000000 0.1000000000 0.1000000000 0.1000000000 0.1000000000 0.1000000000 0.1000000000 0.1000000000 0.1000000000 0.1000000000 0.1000000000 0.1000000000 0.1000000000 0.1000000000 0.1000000000 0.1000000000 0.1000000000 0.1000000000 0.1000000000 0.1000000000 0.1000000000 0.1000000000 0.1000000000 0.1000000000 0.1000000000 0.1000000000 0.1000000000 0.1000000000 0.1000000000 0.1000000000 0.1000000000 0.1000000000 0.1000000000 0.1000000000 0.1000000000 0.1000000000 0.1000000000 0.1000000000 0.1000000000 0.1000000000 0.1000000000 0.1000000000 0.1000000000 0.1000000000 0.1000000000 0.1000000000 0.1000000000 0.1000000000 0.1000000000 0.1000000000 0.1000000000 0.1000000000 0.1000000000 0.1000000000 0.1000000000 0.1000000000 0.1000000000 0.1000000000 0.1000000000 0.1000000000 0.1000000000 0.1000000000 0.1000000000 0.1000000000 0.1000000000 0.1000000000 0.1000000000 0.1000000000 0.1000000000 0.1000000000 0.1000000000 0.1000000000 0.1000000000 0.1000000000 0.1000000000 0.1000000000 0.1000000000 0.1000000000 0.1000000000 0.1000000000 0.1000000000 0.1000000000 0.1000000000 0.1000000000 0.1000000000 0.1000000000 0.1000000000 0.1000000000 0.1000000000 0.1000000000 0.1000000000 0.1000000000 0.1000000000 0.1000000000 0.1000000000 0.1000000000 0.1000000000 0.1000000000 0.1000000000 0.1000000000 0.1000000000 0.1000000000 0.1000000000 0.1000000000 0.1000000000 0.1000000000 0.1000000000 0.1000000000 0.1000000000 0.1000000000 0.1000000000 0.1000000000 0.1000000000 0.1000000000 0.1000000000 0.1000000000 0.1000000000 0.1000000000 0.1000000000 0.1000000000 0.1000000000 0.1000000000 0.1000000000 0.1000000000 0.1000000000 0.1000000000 0.1000000000 0.1000000000 0.1000000000 0.1000000000 0.1000000000 0.1000000000 0.1000000000 0.1000000000 0.1000000000 0.1000000000 0.1000000000 0.1000000000 0.1000000000 0.1000000000 0.1000000000 0.1000000000 0.1000000000 0.1000000000 0.1000000000 0.1000000000 0.1000000000 0.1000000000 0.1000000000 0.1000000000 0.1000000000 0.1000000000 0.1000000000 0.1000000000 0.1000000000 0.1000000000 0.1000000000 0.1000000000 0.1000000000 0.1000000000 0.1000000000 0.1000000000 0.1000000000 0.1000000000 0.1000000000 0.1000000000 0.1000000000 0.1000000000 0.1000000000 0.1000000000 0.1000000000 0.1000000000 0.1000000000 0.1000000000 0.1000000000 0.1000000000 0.1000000000 0.1000000000 0.1000000000 0.1000000000 0.1000000000 0.1000000000 0.1000000000 0.1000000000 0.1000000000 0.1000000000 0.1000000000 0.1000000000 0.1000000000 0.1000000000 0.1000000000 0.1000000000 0.1000000000 0.1000000000 0.1000000000 0.1000000000 0.1000000000 0.1000000000 0.1000000000 0.1000000000 0.1000000000 0.1000000000 0.1000000000 0.1000000000 0.1000000000 0.1000000000 0.1000000000 0.1000000000 0.1000000000 0.1000000000 0.1000000000 0.1000000000 0.1000000000 0.1000000000 0.1000000000 0.1000000000 0.1000000000 0.1000000000 0.1000000000 0.1000000000 0.1000000000 0.1000000000 0.1000000000 0.1000000000 0.1000000000 0.1000000000 0.1000000000 0.1000000000 0.1000000000 0.1000000000 0.1000000000 0.1000000000 0.1000000000 0.1000000000 0.1000000000 0.1000000000 0.1000000000 0.1000000000 0.1000000000 0.1000000000 0.1000000000 0.1000000000 0.1000000000 0.1000000000 0.1000000000 0.1000000000 0.1000000000 0.1000000000 0.1000000000 0.1000000000 0.1000000000 0.1000000000 0.1000000000 0.1000000000 0.1000000000 0.1000000000 0.1000000000 0.1000000000 0.1000000000 0.1000000000 0.1000000000 0.1000000000 0.1000000000 0.1000000000 0.1000000000 0.1000000000 0.1000000000 0.1000000000 0.1000000000 0.1000000000 0.1000000000 0.1000000000 0.1000000000 0.1000000000 0.1000000000 0.1000000000 0.1000000000 0.1000000000 0.1000000000 0.1000000000 0.1000000000 0.1000000000 0.1000000000 0.1000000000 0.1000000000 0.1000000000 0.1000000000 0.1000000000 0.1000000000 0.1000000000 0.1000000000 0.1000000000 0.1000000000 0.1000000000 0.1000000000 0.1000000000 0.1000000000 0.1000000000 0.1000000000 0.1000000000 0.1000000000 0.1000000000 0.1000000000 0.1000000000 0.1000000000 0.1000000000 0.1000000000 0.1000000000 0.1000000000 0.1000000000 0.1000000000 0.1000000000 0.1000000000 0.1000000000 0.1000000000 0.1000000000 0.1000000000 0.1000000000 0.1000000000 0.1000000000 0.1000000000 0.1000000000 0.1000000000 0.1000000000 0.1000000000 0.1000000000 0.1000000000 0.1000000000 0.1000000000 0.1000000000 0.1000000000 0.1000000000 0.1000000000 0.1000000000 0.1000000000 0.1000000000 0.1000000000 0.1000000000 0.1000000000 0.1000000000 0.1000000000 0.1000000000 0.1000000000 0.1000000000 0.1000000000 0.1000000000 0.1000000000 0.1000000000 0.1000000000 0.1000000000 0.1000000000 0.1000000000 0.1000000000 0.1000000000 0.1000000000 0.1000000000 0.1000000000 0.1000000000 0.1000000000 0.1000000000 0.1000000000 0.1000000000 0.1000000000 0.1000000000 0.1000000000 0.1000000000 0.1000000000 0.1000000000 0.1000000000 0.1000000000 0.1000000000 0.1000000000 0.1000000000 0.1000000000 0.1000000000 0.1000000000 0.1000000000 0.1000000000 0.1000000000 0.1000000000 0.1000000000 0.1000000000 0.1000000000 0.1000000000 0.1000000000 0.1000000000 0.1000000000 0.1000000000 0.1000000000 0.1000000000 0.1000000000 0.1000000000 0.1000000000 0.1000000000 0.1000000000 0.1000000000 0.1000000000 0.1000000000 0.1000000000 0.1000000000 0.1000000000 0.1000000000 0.1000000000 0.1000000000 0.1000000000 0.1000000000 0.1000000000 0.1000000000 0.1000000000 0.1000000000 0.1000000000 0.1000000000 0.1000000000 0.1000000000 0.1000000000 0.1000000000 0.1000000000 0.1000000000 0.1000000000 0.1000000000 0.1000000000 0.1000000000 0.1000000000 0.1000000000 0.1000000000 0.1000000000 0.1000000000 0.1000000000 0.1000000000 0.1000000000 0.1000000000 0.1000000000 0.1000000000 0.1000000000 0.1000000000 0.1000000000 0.1000000000 0.1000000000 0.1000000000 0.1000000000 0.1000000000 0.1000000000 0.1000000000 0.1000000000 0.1000000000 0.1000000000 0.1000000000 0.1000000000 0.1000000000 0.1000000000 0.1000000000 0.1000000000 0.1000000000 0.1000000000 0.1000000000 0.1000000000 0.1000000000 0.1000000000 0.1000000000 0.1000000000 0.1000000000 0.1000000000 0.1000000000 0.1000000000 0.1000000000 0.1000000000 0.1000000000 0.1000000000 0.1000000000 0.1000000000 0.1000000000 0.1000000000 0.1000000000 0.1000000000 0.1000000000 0.1000000000 0.1000000000 0.1000000000 0.1000000000 0.1000000000 0.1000000000 0.1000000000 0.1000000000 0.1000000000 0.1000000000 0.1000000000 0.1000000000 0.1000000000 0.1000000000 0.1000000000 0.1000000000 0.1000000000 0.1000000000 0.1000000000 0.1000000000 0.1000000000 0.1000000000 0.1000000000 0.1000000000 0.1000000000 0.1000000000 0.1000000000 0.1000000000 0.1000000000 0.1000000000 0.1000000000 0.1000000000 0.1000000000 0.1000000000 0.1000000000 0.1000000000 0.1000000000 0.1000000000 0.1000000000 0.1000000000 0.1000000000 0.1000000000 0.1000000000 0.1000000000 0.1000000000 0.1000000000 0.1000000000 0.1000000000 0.1000000000 0.1000000000 0.1000000000 0.1000000000 0.1000000000 0.1000000000 0.1000000000 0.1000000000 0.1000000000 0.1000000000 0.1000000000 0.1000000000 0.1000000000 0.1000000000 0.1000000000 0.1000000000 0.1000000000 0.1000000000 0.1000000000 0.1000000000 0.1000000000 0.1000000000 0.1000000000 0.1000000000 0.1000000000 0.1000000000 0.1000000000 0.1000000000 0.1000000000 0.1000000000 0.1000000000 0.1000000000 0.1000000000 0.1000000000 0.1000000000 0.1000000000 0.1000000000 0.1000000000 0.1000000000 0.1000000000 0.1000000000 0.1000000000 0.1000000000 0.1000000000 0.1000000000 0.1000000000 0.1000000000 0.1000000000 0.1000000000 0.1000000000 0.1000000000 0.1000000000 0.1000000000 0.1000000000 0.1000000000 0.1000000000 0.1000000000 0.1000000000 0.1000000000 0.1000000000 0.1000000000 0.1000000000 0.1000000000 0.1000000000 0.1000000000 0.1000000000 0.1000000000 0.1000000000 0.1000000000 0.1000000000 0.1000000000 0.1000000000 0.1000000000 0.1000000000 0.1000000000 0.1000000000 0.1000000000 0.1000000000 0.1000000000 0.1000000000 0.1000000000 0.1000000000 0.1000000000 0.1000000000 0.1000000000 0.1000000000 0.1000000000 0.1000000000 0.1000000000 0.1000000000 0.1000000000 0.1000000000 0.1000000000 0.1000000000 0.1000000000 0.1000000000 0.1000000000 0.1000000000 0.1000000000 0.1000000000 0.1000000000 0.1000000000 0.1000000000 0.1000000000 0.1000000000 0.1000000000 0.1000000000 0.1000000000 0.1000000000 0.1000000000 0.1000000000 0.1000000000 0.1000000000 0.1000000000 0.1000000000 0.1000000000 0.1000000000 0.1000000000 0.1000000000 0.1000000000 0.1000000000 0.1000000000 0.1000000000 0.1000000000 0.1000000000 0.1000000000 0.1000000000 0.1000000000 0.1000000000 0.1000000000 0.1000000000 0.1000000000 0.1000000000 0.1000000000 0.1000000000 0.1000000000 0.1000000000 0.1000000000 0.1000000000 0.1000000000 0.1000000000 0.1000000000 0.1000000000 0.1000000000 0.1000000000 0.1000000000 0.1000000000 0.1000000000 0.1000000000 0.1000000000 0.1000000000 0.1000000000 0.1000000000 0.1000000000 0.1000000000 0.1000000000 0.1000000000 0.1000000000 0.1000000000 0.1000000000 0.1000000000 0.1000000000 0.1000000000 0.1000000000 0.1000000000 0.1000000000 0.1000000000 0.1000000000 0.1000000000 0.1000000000 0.1000000000 0.1000000000 0.1000000000 0.1000000000 0.1000000000 0.1000000000 0.1000000000 0.1000000000 0.1000000000 0.1000000000 0.1000000000 0.1000000000 0.1000000000 0.1000000000 0.1000000000 0.1000000000 0.1000000000 0.1000000000 0.1000000000 0.1000000000 0.1000000000 0.1000000000 0.1000000000 0.1000000000 0.1000000000 0.1000000000 0.1000000000 0.1000000000 0.1000000000 0.1000000000 0.1000000000 0.1000000000 0.1000000000 0.1000000000 0.1000000000 0.1000000000 0.1000000000 0.1000000000 0.1000000000 0.1000000000 0.1000000000 0.1000000000 0.1000000000 0.1000000000 0.1000000000 0.1000000000 0.1000000000 0.1000000000 0.1000000000 0.1000000000 0.1000000000 0.1000000000 0.1000000000 0.1000000000 0.1000000000 0.1000000000 0.1000000000 0.1000000000 0.1000000000 0.1000000000 0.1000000000 0.1000000000 0.1000000000 0.1000000000 0.1000000000 0.1000000000 0.1000000000 0.1000000000 0.1000000000 0.1000000000 0.1000000000 0.1000000000 0.1000000000 0.1000000000 0.1000000000 0.1000000000 0.1000000000 0.1000000000 0.1000000000 0.1000000000 0.1000000000 0.1000000000 0.1000000000 0.1000000000 0.1000000000 0.1000000000 0.1000000000 0.1000000000 0.1000000000 0.1000000000 0.1000000000 0.1000000000 0.1000000000 0.1000000000 0.1000000000 0.1000000000 0.1000000000 0.1000000000 0.1000000000 0.1000000000 0.1000000000 0.1000000000 0.1000000000 0.1000000000 0.1000000000 0.1000000000 0.1000000000 0.1000000000 0.1000000000 0.1000000000 0.1000000000 0.1000000000 0.1000000000 0.1000000000 0.1000000000 0.1000000000 0.1000000000 0.1000000000 0.1000000000 0.1000000000 0.1000000000 0.1000000000 0.1000000000 0.1000000000 0.1000000000 0.1000000000 0.1000000000 0.1000000000 0.1000000000 0.1000000000 0.1000000000 0.1000000000 0.1000000000 0.1000000000 0.1000000000 0.1000000000 0.1000000000 0.1000000000 0.1000000000 0.1000000000 0.1000000000 0.1000000000 0.1000000000 0.1000000000 0.1000000000 0.1000000000 0.1000000000 0.1000000000 0.1000000000 0.1000000000 0.1000000000 0.1000000000 0.1000000000 0.1000000000 0.1000000000 0.1000000000 0.1000000000 0.1000000000 0.1000000000 0.1000000000 0.1000000000 0.1000000000 0.1000000000 0.1000000000 0.1000000000 0.1000000000 0.1000000000 0.1000000000 0.1000000000 0.1000000000 0.1000000000 0.1000000000 0.1000000000 0.1000000000 0.1000000000 0.1000000000 0.1000000000 0.1000000000 0.1000000000 0.1000000000 0.1000000000 0.1000000000 0.1000000000 0.1000000000 0.10000000