<?xml version="1.0"?>
<VTKFile type="UnstructuredGrid" version="0.1" byte_order="LittleEndian">
  <UnstructuredGrid>
    <FieldData>
      <DataArray type="Float32" Name="TIME"  NumberOfTuples="1" format="ascii"> 0.9000000000 </DataArray>
      <DataArray type="Int32"   Name="STEP"  NumberOfTuples="1" format="ascii"> 225000 </DataArray>
    </FieldData>
    <Piece NumberOfPoints="11600" NumberOfCells="11600">
      <Points>
        <DataArray type="Float32" NumberOfComponents="3" format="ascii">
 -0.1408572585 -0.3258625453 0.0000000000 0.0591334136 -0.3239310148 0.0000000000 0.2591240902 -0.3219994846 0.0000000000 0.4591147745 -0.3200679531 0.0000000000 0.6591054538 -0.3181364214 0.0000000000 0.8590961332 -0.3162048908 0.0000000000 1.0590868137 -0.3142733614 0.0000000000 1.2590774945 -0.3123418360 0.0000000000 1.4590682131 -0.3104103053 0.0000000000 1.6590588969 -0.3084787706 0.0000000000 1.8590495820 -0.3065472399 0.0000000000 2.0590402683 -0.3046157120 0.0000000000 2.2590309539 -0.3026841897 0.0000000000 2.4590216998 -0.3007526612 0.0000000000 2.6590123904 -0.2988211274 0.0000000000 2.8590030854 -0.2968895988 0.0000000000 3.0589937813 -0.2949580709 0.0000000000 3.2589844753 -0.2930265492 0.0000000000 3.4589752591 -0.2910950141 0.0000000000 3.6589659558 -0.2891634699 0.0000000000 3.8589566566 -0.2872319307 0.0000000000 4.0589473582 -0.2853003908 0.0000000000 4.2589380559 -0.2833688583 0.0000000000 4.4589288566 -0.2814373145 0.0000000000 4.6589195558 -0.2795057585 0.0000000000 4.8589102605 -0.2775742083 0.0000000000 5.0589009653 -0.2756426575 0.0000000000 5.2588916657 -0.2737111140 0.0000000000 5.4588824752 -0.2717795579 0.0000000000 5.6588731773 -0.2698479914 0.0000000000 5.8588638862 -0.2679164323 0.0000000000 6.0588545955 -0.2659848722 0.0000000000 6.2588452996 -0.2640533176 0.0000000000 6.4588361218 -0.2621217436 0.0000000000 6.6588268225 -0.2601901560 0.0000000000 6.8588175274 -0.2582585772 0.0000000000 7.0588082322 -0.2563270007 0.0000000000 7.2587989329 -0.2543954326 0.0000000000 7.4587897527 -0.2524638491 0.0000000000 7.6587804547 -0.2505322502 0.0000000000 7.8587711622 -0.2486006583 0.0000000000 8.0587618695 -0.2466690683 0.0000000000 8.2587525717 -0.2447374872 0.0000000000 8.4587433963 -0.2428058937 0.0000000000 8.6587341011 -0.2408742828 0.0000000000 8.8587248124 -0.2389426776 0.0000000000 9.0587155248 -0.2370110706 0.0000000000 9.2587062320 -0.2350794699 0.0000000000 9.4586970800 -0.2331478458 0.0000000000 9.6586877851 -0.2312162037 0.0000000000 9.8586784950 -0.2292845708 0.0000000000 10.0586692038 -0.2273529389 0.0000000000 10.2586599058 -0.2254213127 0.0000000000 10.4586507230 -0.2234896717 0.0000000000 10.6586414218 -0.2215580162 0.0000000000 10.8586321255 -0.2196263691 0.0000000000 11.0586228287 -0.2176947235 0.0000000000 11.2586135277 -0.2157630841 0.0000000000 11.4586043303 -0.2138314317 0.0000000000 11.6585950289 -0.2118997626 0.0000000000 11.8585857311 -0.2099680976 0.0000000000 12.0585764324 -0.2080364304 0.0000000000 12.2585671285 -0.2061047663 0.0000000000 12.4585579061 -0.2041730875 0.0000000000 12.6585485935 -0.2022414018 0.0000000000 12.8585393565 -0.2003097127 0.0000000000 13.0585300453 -0.1983780034 0.0000000000 13.2585207340 -0.1964462976 0.0000000000 13.4585114824 -0.1945145703 0.0000000000 13.6585021675 -0.1925828212 0.0000000000 13.8584929129 -0.1906510273 0.0000000000 14.0680142627 -0.1871858085 -0.0000000000 14.2680141426 -0.1874045357 -0.0000000000 14.4680140223 -0.1876232626 -0.0000000000 14.6680139048 -0.1878419889 -0.0000000000 14.8680137847 -0.1880607161 0.0000000000 15.0680136657 -0.1882794425 0.0000000000 15.2680135466 -0.1884981696 0.0000000000 15.4680134266 -0.1887168962 0.0000000000 15.6680133084 -0.1889356230 0.0000000000 15.8680131885 -0.1891543498 0.0000000000 16.0680130697 -0.1893730766 0.0000000000 16.2680129506 -0.1895918029 0.0000000000 16.4971545580 -0.1420998354 -0.0000000008 16.6971446150 -0.1401052661 -0.0000000008 16.8971346728 -0.1381106951 -0.0000000007 17.0971247289 -0.1361161218 -0.0000000007 17.2971147830 -0.1341215481 -0.0000000006 17.4971048368 -0.1321269743 -0.0000000005 17.6970948923 -0.1301324007 -0.0000000005 17.8970849495 -0.1281378259 -0.0000000004 18.0970750068 -0.1261432472 -0.0000000003 18.2970650640 -0.1241486644 -0.0000000001 18.4970551216 -0.1221540782 -0.0000000000 18.6970451806 -0.1201594903 0.0000000001 18.8970352536 -0.1181648937 0.0000000002 19.0970253117 -0.1161702910 0.0000000003 19.2970153683 -0.1141756892 0.0000000003 19.4970054259 -0.1121810859 0.0000000004 19.6969954827 -0.1101864788 0.0000000005 -0.0425346755 -0.1516997776 0.0000000000 0.1574559981 -0.1497682486 0.0000000000 0.3574466780 -0.1478367185 0.0000000000 0.5574373593 -0.1459051868 0.0000000000 0.7574280396 -0.1439736561 0.0000000000 0.9574187217 -0.1420421260 0.0000000000 1.1574094070 -0.1401105980 0.0000000000 1.3574001007 -0.1381790722 0.0000000000 1.5573907957 -0.1362475386 0.0000000000 1.7573814852 -0.1343160064 0.0000000000 1.9573721753 -0.1323844771 0.0000000000 2.1573628691 -0.1304529509 0.0000000000 2.3573535754 -0.1285214287 0.0000000000 2.5573442839 -0.1265898959 0.0000000000 2.7573349839 -0.1246583660 0.0000000000 2.9573256846 -0.1227268376 0.0000000000 3.1573163896 -0.1207953114 0.0000000000 3.3573071112 -0.1188637875 0.0000000000 3.5572978338 -0.1169322445 0.0000000000 3.7572885423 -0.1150007039 0.0000000000 3.9572792494 -0.1130691640 0.0000000000 4.1572699604 -0.1111376264 0.0000000000 4.3572606897 -0.1092060932 0.0000000000 4.5572514199 -0.1072745392 0.0000000000 4.7572421332 -0.1053429877 0.0000000000 4.9572328444 -0.1034114372 0.0000000000 5.1572235600 -0.1014798882 0.0000000000 5.3572142948 -0.0995483435 0.0000000000 5.5572050303 -0.0976167779 0.0000000000 5.7571957485 -0.0956852171 0.0000000000 5.9571864641 -0.0937536576 0.0000000000 6.1571771831 -0.0918220983 0.0000000000 6.3571679212 -0.0898905394 0.0000000000 6.5571586584 -0.0879589534 0.0000000000 6.7571493753 -0.0860273717 0.0000000000 6.9571400885 -0.0840957942 0.0000000000 7.1571308049 -0.0821642200 0.0000000000 7.3571215411 -0.0802326498 0.0000000000 7.5571122780 -0.0783010534 0.0000000000 7.7571029959 -0.0763694602 0.0000000000 7.9570937113 -0.0744378697 0.0000000000 8.1570844303 -0.0725062831 0.0000000000 8.3570751708 -0.0705747006 0.0000000000 8.5570659117 -0.0686430931 0.0000000000 8.7570566328 -0.0667114874 0.0000000000 8.9570473514 -0.0647798816 0.0000000000 9.1570380749 -0.0628482758 0.0000000000 9.3570288220 -0.0609166700 0.0000000000 9.5570195688 -0.0589850302 0.0000000000 9.7570102917 -0.0570533944 0.0000000000 9.9570010088 -0.0551217618 0.0000000000 10.1569917269 -0.0531901306 0.0000000000 10.3569824630 -0.0512585020 0.0000000000 10.5569731975 -0.0493268476 0.0000000000 10.7569639122 -0.0473951984 0.0000000000 10.9569546232 -0.0454635533 0.0000000000 11.1569453358 -0.0435319093 0.0000000000 11.3569360650 -0.0416002676 0.0000000000 11.5569267934 -0.0396686018 0.0000000000 11.7569175039 -0.0377369366 0.0000000000 11.9569082099 -0.0358052712 0.0000000000 12.1568989166 -0.0338736038 0.0000000000 12.3568896378 -0.0319419365 0.0000000000 12.5568803591 -0.0300102509 0.0000000000 12.7568710752 -0.0280785672 0.0000000000 12.9568617868 -0.0261468645 0.0000000000 13.1568524838 -0.0242151575 0.0000000000 13.3568431843 -0.0222834443 0.0000000000 13.5568338797 -0.0203517040 0.0000000000 13.7568245634 -0.0184199480 0.0000000000 13.9682037433 -0.0138714710 -0.0000000000 14.1682036250 -0.0140901962 -0.0000000000 14.3682035058 -0.0143089229 -0.0000000000 14.5682033866 -0.0145276502 0.0000000000 14.7682032673 -0.0147463768 0.0000000000 14.9682031481 -0.0149651037 0.0000000000 15.1682030287 -0.0151838306 0.0000000000 15.3682029093 -0.0154025572 0.0000000000 15.5682027904 -0.0156212844 0.0000000000 15.7682026711 -0.0158400107 0.0000000000 15.9682025521 -0.0160587372 0.0000000000 16.1682024302 -0.0162774662 0.0000000000 16.3954321859 0.0300993467 -0.0000000007 16.5954222388 0.0320939147 -0.0000000007 16.7954122947 0.0340884851 -0.0000000007 16.9954023500 0.0360830577 -0.0000000006 17.1953924039 0.0380776315 -0.0000000006 17.3953824578 0.0400722053 -0.0000000005 17.5953725115 0.0420667791 -0.0000000005 17.7953625660 0.0440613533 -0.0000000004 17.9953526208 0.0460559300 -0.0000000003 18.1953426753 0.0480505102 -0.0000000002 18.3953327306 0.0500450941 -0.0000000001 18.5953227874 0.0520396808 -0.0000000000 18.7953128461 0.0540342722 0.0000000001 18.9953029050 0.0560288727 0.0000000002 19.1952929614 0.0580234745 0.0000000003 19.3952830175 0.0600180764 0.0000000003 19.5952730736 0.0620126807 0.0000000004 19.7952631285 0.0640072895 0.0000000005 -0.1442027648 0.0205314625 0.0000000000 0.0557879082 0.0224629905 0.0000000000 0.2557785850 0.0243945193 0.0000000000 0.4557692666 0.0263260502 0.0000000000 0.6557599468 0.0282575805 0.0000000000 0.8557506286 0.0301891105 0.0000000000 1.0557413127 0.0321206390 0.0000000000 1.2557319976 0.0340521659 0.0000000000 1.4557226995 0.0359836962 0.0000000000 1.6557133875 0.0379152274 0.0000000000 1.8557040786 0.0398467575 0.0000000000 2.0556947713 0.0417782852 0.0000000000 2.2556854639 0.0437098101 0.0000000000 2.4556761855 0.0456413380 0.0000000000 2.6556668818 0.0475728673 0.0000000000 2.8556575822 0.0495043957 0.0000000000 3.0556482842 0.0514359230 0.0000000000 3.2556389846 0.0533674494 0.0000000000 3.4556297252 0.0552989834 0.0000000000 3.6556204280 0.0572305236 0.0000000000 3.8556111345 0.0591620640 0.0000000000 4.0556018417 0.0610936029 0.0000000000 4.2555925465 0.0630251397 0.0000000000 4.4555832991 0.0649566835 0.0000000000 4.6555740058 0.0668882345 0.0000000000 4.8555647169 0.0688197849 0.0000000000 5.0555554290 0.0707513345 0.0000000000 5.2555461382 0.0726828830 0.0000000000 5.4555368996 0.0746144379 0.0000000000 5.6555276102 0.0765459990 0.0000000000 5.8555183253 0.0784775590 0.0000000000 6.0555090401 0.0804091189 0.0000000000 6.2554997502 0.0823406801 0.0000000000 6.4554905122 0.0842722521 0.0000000000 6.6554812218 0.0862038335 0.0000000000 6.8554719353 0.08813
[...]
      <PointData Scalars="radius">
        <DataArray type="Float32" Name="radius" format="ascii">
 0.1000000000 0.1000000000 0.1000000000 0.1000000000 0.1000000000 0.1000000000 0.1000000000 0.1000000000 0.1000000000 0.1000000000 0.1000000000 0.1000000000 0.1000000000 0.1000000000 0.1000000000 0.1000000000 0.1000000000 0.1000000000 0.1000000000 0.1000000000 0.1000000000 0.1000000000 0.1000000000 0.1000000000 0.1000000000 0.1000000000 0.1000000000 0.1000000000 0.1000000000 0.1000000000 0.1000000000 0.1000000000 0.1000000000 0.1000000000 0.1000000000 0.1000000000 0.1000000000 0.1000000000 0.1000000000 0.1000000000 0.1000000000 0.1000000000 0.1000000000 0.1000000000 0.1000000000 0.1000000000 0.1000000000 0.1000000000 0.1000000000 0.1000000000 0.1000000000 0.1000000000 0.1000000000 0.1000000000 0.1000000000 0.1000000000 0.1000000000 0.1000000000 0.1000000000 0.1000000000 0.1000000000 0.1000000000 0.1000000000 0.1000000000 0.1000000000 0.1000000000 0.1000000000 0.1000000000 0.1000000000 0.1000000000 0.1000000000 0.1000000000 0.1000000000 0.1000000000 0.1000000000 0.1000000000 0.1000000000 0.1000000000 0.1000000000 0.1000000000 0.1000000000 0.1000000000 0.1000000000 0.1000000000 0.1000000000 0.1000000000 0.1000000000 0.1000000000 0.1000000000 0.1000000000 0.1000000000 0.1000000000 0.1000000000 0.1000000000 0.1000000000 0.1000000000 0.1000000000 0.1000000000 0.1000000000 0.1000000000 0.1000000000 0.1000000000 0.1000000000 0.1000000000 0.1000000000 0.1000000000 0.1000000000 0.1000000000 0.1000000000 0.1000000000 0.1000000000 0.1000000000 0.1000000000 0.1000000000 0.1000000000 0.1000000000 0.1000000000 0.1000000000 0.1000000000 0.1000000000 0.1000000000 0.1000000000 0.1000000000 0.1000000000 0.1000000000 0.1000000000 0.1000000000 0.1000000000 0.1000000000 0.1000000000 0.1000000000 0.1000000000 0.1000000000 0.1000000000 0.1000000000 0.1000000000 0.1000000000 0.1000000000 0.1000000000 0.1000000000 0.1000000000 0.1000000000 0.1000000000 0.1000000000 0.1000000000 0.1000000000 0.1000000000 0.1000000000 0.1000000000 0.1000000000 0.1000000000 0.1000000000 0.1000000000 0.1000000000 0.1000000000 0.1000000000 0.1000000000 0.1000000000 0.1000000000 0.1000000000 0.1000000000 0.1000000000 0.1000000000 0.1000000000 0.1000000000 0.1000000000 0.1000000000 0.1000000000 0.1000000000 0.1000000000 0.1000000000 0.1000000000 0.1000000000 0.1000000000 0.1000000000 0.1000000000 0.1000000000 0.1000000000 0.1000000000 0.1000000000 0.1000000000 0.1000000000 0.1000000000 0.1000000000 0.1000000000 0.1000000000 0.1000000000 0.1000000000 0.1000000000 0.1000000000 0.1000000000 0.1000000000 0.1000000000 0.1000000000 0.1000000000 0.1000000000 0.1000000000 0.1000000000 0.1000000000 0.1000000000 0.1000000000 0.1000000000 0.1000000000 0.1000000000 0.1000000000 0.1000000000 0.1000000000 0.1000000000 0.1000000000 0.1000000000 0.1000000000 0.1000000000 0.1000000000 0.1000000000 0.1000000000 0.1000000000 0.1000000000 0.1000000000 0.1000000000 0.1000000000 0.1000000000 0.1000000000 0.1000000000 0.1000000000 0.1000000000 0.1000000000 0.1000000000 0.1000000000 0.1000000000 0.1000000000 0.1000000000 0.1000000000 0.1000000000 0.1000000000 0.1000000000 0.1000000000 0.1000000000 0.1000000000 0.1000000000 0.1000000000 0.1000000000 0.1000000000 0.1000000000 0.1000000000 0.1000000000 0.1000000000 0.1000000000 0.1000000000 0.1000000000 0.1000000000 0.1000000000 0.1000000000 0.1000000000 0.1000000000 0.1000000000 0.1000000000 0.1000000000 0.1000000000 0.1000000000 0.1000000000 0.1000000000 0.1000000000 0.1000000000 0.1000000000 0.1000000000 0.1000000000 0.1000000000 0.1000000000 0.1000000000 0.1000000000 0.1000000000 0.1000000000 0.1000000000 0.1000000000 0.1000000000 0.1000000000 0.1000000000 0.1000000000 0.1000000000 0.1000000000 0.1000000000 0.1000000000 0.1000000000 0.1000000000 0.1000000000 0.1000000000 0.1000000000 0.1000000000 0.1000000000 0.1000000000 0.1000000000 0.1000000000 0.1000000000 0.1000000000 0.1000000000 0.1000000000 0.1000000000 0.1000000000 0.1000000000 0.1000000000 0.1000000000 0.1000000000 0.1000000000 0.1000000000 0.1000000000 0.1000000000 0.1000000000 0.1000000000 0.1000000000 0.1000000000 0.1000000000 0.1000000000 0.1000000000 0.1000000000 0.1000000000 0.1000000000 0.1000000000 0.1000000000 0.1000000000 0.1000000000 0.1000000000 0.1000000000 0.1000000000 0.1000000000 0.1000000000 0.1000000000 0.1000000000 0.1000000000 0.1000000000 0.1000000000 0.1000000000 0.1000000000 0.1000000000 0.1000000000 0.1000000000 0.1000000000 0.1000000000 0.1000000000 0.1000000000 0.1000000000 0.1000000000 0.1000000000 0.1000000000 0.1000000000 0.1000000000 0.1000000000 0.1000000000 0.1000000000 0.1000000000 0.1000000000 0.1000000000 0.1000000000 0.1000000000 0.1000000000 0.1000000000 0.1000000000 0.1000000000 0.1000000000 0.1000000000 0.1000000000 0.1000000000 0.1000000000 0.1000000000 0.1000000000 0.1000000000 0.1000000000 0.1000000000 0.1000000000 0.1000000000 0.1000000000 0.1000000000 0.1000000000 0.1000000000 0.1000000000 0.1000000000 0.1000000000 0.1000000000 0.1000000000 0.1000000000 0.1000000000 0.1000000000 0.1000000000 0.1000000000 0.1000000000 0.1000000000 0.1000000000 0.1000000000 0.1000000000 0.1000000000 0.1000000000 0.1000000000 0.1000000000 0.1000000000 0.1000000000 0.1000000000 0.1000000000 0.1000000000 0.1000000000 0.1000000000 0.1000000000 0.1000000000 0.1000000000 0.1000000000 0.1000000000 0.1000000000 0.1000000000 0.1000000000 0.1000000000 0.1000000000 0.1000000000 0.1000000000 0.1000000000 0.1000000000 0.1000000000 0.1000000000 0.1000000000 0.1000000000 0.1000000000 0.1000000000 0.1000000000 0.1000000000 0.1000000000 0.1000000000 0.1000000000 0.1000000000 0.1000000000 0.1000000000 0.1000000000 0.1000000000 0.1000000000 0.1000000000 0.1000000000 0.1000000000 0.1000000000 0.1000000000 0.1000000000 0.1000000000 0.1000000000 0.1000000000 0.1000000000 0.1000000000 0.1000000000 0.1000000000 0.1000000000 0.1000000000 0.1000000000 0.1000000000 0.1000000000 0.1000000000 0.1000000000 0.1000000000 0.1000000000 0.1000000000 0.1000000000 0.1000000000 0.1000000000 0.1000000000 0.1000000000 0.1000000000 0.1000000000 0.1000000000 0.1000000000 0.1000000000 0.1000000000 0.1000000000 0.1000000000 0.1000000000 0.1000000000 0.1000000000 0.1000000000 0.1000000000 0.1000000000 0.1000000000 0.1000000000 0.1000000000 0.1000000000 0.1000000000 0.1000000000 0.1000000000 0.1000000000 0.1000000000 0.1000000000 0.1000000000 0.1000000000 0.1000000000 0.1000000000 0.1000000000 0.1000000000 0.1000000000 0.1000000000 0.1000000000 0.1000000000 0.1000000000 0.1000000000 0.1000000000 0.1000000000 0.1000000000 0.1000000000 0.1000000000 0.1000000000 0.1000000000 0.1000000000 0.1000000000 0.1000000000 0.1000000000 0.1000000000 0.1000000000 0.1000000000 0.1000000000 0.1000000000 0.1000000000 0.1000000000 0.1000000000 0.1000000000 0.1000000000 0.1000000000 0.1000000000 0.1000000000 0.1000000000 0.1000000000 0.1000000000 0.1000000000 0.1000000000 0.1000000000 0.1000000000 0.1000000000 0.1000000000 0.1000000000 0.1000000000 0.1000000000 0.1000000000 0.1000000000 0.1000000000 0.1000000000 0.1000000000 0.1000000000 0.1000000000 0.1000000000 0.1000000000 0.1000000000 0.1000000000 0.1000000000 0.1000000000 0.1000000000 0.1000000000 0.1000000000 0.1000000000 0.1000000000 0.1000000000 0.1000000000 0.1000000000 0.1000000000 0.1000000000 0.1000000000 0.1000000000 0.1000000000 0.1000000000 0.1000000000 0.1000000000 0.1000000000 0.1000000000 0.1000000000 0.1000000000 0.1000000000 0.1000000000 0.1000000000 0.1000000000 0.1000000000 0.1000000000 0.1000000000 0.1000000000 0.1000000000 0.1000000000 0.1000000000 0.1000000000 0.1000000000 0.1000000000 0.1000000000 0.1000000000 0.1000000000 0.1000000000 0.1000000000 0.1000000000 0.1000000000 0.1000000000 0.1000000000 0.1000000000 0.1000000000 0.1000000000 0.1000000000 0.1000000000 0.1000000000 0.1000000000 0.1000000000 0.1000000000 0.1000000000 0.1000000000 0.1000000000 0.1000000000 0.1000000000 0.1000000000 0.1000000000 0.1000000000 0.1000000000 0.1000000000 0.1000000000 0.1000000000 0.1000000000 0.1000000000 0.1000000000 0.1000000000 0.1000000000 0.1000000000 0.1000000000 0.1000000000 0.1000000000 0.1000000000 0.1000000000 0.1000000000 0.1000000000 0.1000000000 0.1000000000 0.1000000000 0.1000000000 0.1000000000 0.1000000000 0.1000000000 0.1000000000 0.1000000000 0.1000000000 0.1000000000 0.1000000000 0.1000000000 0.1000000000 0.1000000000 0.1000000000 0.1000000000 0.1000000000 0.1000000000 0.1000000000 0.1000000000 0.1000000000 0.1000000000 0.1000000000 0.1000000000 0.1000000000 0.1000000000 0.1000000000 0.1000000000 0.1000000000 0.1000000000 0.1000000000 0.1000000000 0.1000000000 0.1000000000 0.1000000000 0.1000000000 0.1000000000 0.1000000000 0.1000000000 0.1000000000 0.1000000000 0.1000000000 0.1000000000 0.1000000000 0.1000000000 0.1000000000 0.1000000000 0.1000000000 0.1000000000 0.1000000000 0.1000000000 0.1000000000 0.1000000000 0.1000000000 0.1000000000 0.1000000000 0.1000000000 0.1000000000 0.1000000000 0.1000000000 0.1000000000 0.1000000000 0.1000000000 0.1000000000 0.1000000000 0.1000000000 0.1000000000 0.1000000000 0.1000000000 0.1000000000 0.1000000000 0.1000000000 0.1000000000 0.1000000000 0.1000000000 0.1000000000 0.1000000000 0.1000000000 0.1000000000 0.1000000000 0.1000000000 0.1000000000 0.1000000000 0.1000000000 0.1000000000 0.1000000000 0.1000000000 0.1000000000 0.1000000000 0.1000000000 0.1000000000 0.1000000000 0.1000000000 0.1000000000 0.1000000000 0.1000000000 0.1000000000 0.1000000000 0.1000000000 0.1000000000 0.1000000000 0.1000000000 0.1000000000 0.1000000000 0.1000000000 0.1000000000 0.1000000000 0.1000000000 0.1000000000 0.1000000000 0.1000000000 0.1000000000 0.1000000000 0.1000000000 0.1000000000 0.1000000000 0.1000000000 0.1000000000 0.1000000000 0.1000000000 0.1000000000 0.1000000000 0.1000000000 0.1000000000 0.1000000000 0.1000000000 0.1000000000 0.1000000000 0.1000000000 0.1000000000 0.1000000000 0.1000000000 0.1000000000 0.1000000000 0.1000000000 0.1000000000 0.1000000000 0.1000000000 0.1000000000 0.1000000000 0.1000000000 0.1000000000 0.1000000000 0.1000000000 0.1000000000 0.1000000000 0.1000000000 0.1000000000 0.1000000000 0.1000000000 0.1000000000 0.1000000000 0.1000000000 0.1000000000 0.1000000000 0.1000000000 0.1000000000 0.1000000000 0.1000000000 0.1000000000 0.1000000000 0.1000000000 0.1000000000 0.1000000000 0.1000000000 0.1000000000 0.1000000000 0.1000000000 0.1000000000 0.1000000000 0.1000000000 0.1000000000 0.1000000000 0.1000000000 0.1000000000 0.1000000000 0.1000000000 0.1000000000 0.1000000000 0.1000000000 0.1000000000 0.1000000000 0.1000000000 0.1000000000 0.1000000000 0.1000000000 0.1000000000 0.1000000000 0.1000000000 0.1000000000 0.1000000000 0.1000000000 0.1000000000 0.1000000000 0.1000000000 0.1000000000 0.1000000000 0.1000000000 0.1000000000 0.1000000000 0.1000000000 0.1000000000 0.1000000000 0.1000000000 0.1000000000 0.1000000000 0.1000000000 0.1000000000 0.1000000000 0.1000000000 0.1000000000 0.1000000000 0.1000000000 0.1000000000 0.1000000000 0.1000000000 0.1000000000 0.1000000000 0.1000000000 0.1000000000 0.1000000000 0.1000000000 0.1000000000 0.1000000000 0.1000000000 0.1000000000 0.1000000000 0.1000000000 0.1000000000 0.1000000000 0.1000000000 0.1000000000 0.1000000000 0.1000000000 0.1000000000 0.1000000000 0.1000000000 0.1000000000 0.1000000000 0.1000000000 0.1000000000 0.1000000000 0.1000000000 0.1000000000 0.1000000000 0.1000000000 0.1000000000 0.1000000000 0.1000000000 0.1000000000 0.1000000000 0.1000000000 0.1000000000 0.1000000000 0.1000000000 0.1000000000 0.1000000000 0.1000000000 0.1000000000 0.1000000000 0.1000000000 0.1000000000 0.1000000000 0.1000000000 0.1000000000 0.1000000000 0.1000000000 0.1000000000 0.1000000000 0.1000000000 0.1000000000 0.1000000000 0.1000000000 0.1000000000 0.1000000000 0.1000000000 0.1000000000 0.1000000000 0.1000000000 0.1000000000 0.1000000000 0.1000000000 0.1000000000 0.1000000000 0.1000000000 0.1000000000 0.1000000000 0.1000000000 0.1000000000 0.1000000000 0.1000000000 0.1000000000 0.1000000000 0.1000000000 0.1000000000 0.1000000000 0.1000000000 0.1000000000 0.1000000000 0.1000000000 0.1000000000 0.1000000000 0.1000000000 0.1000000000 0.1000000000 0.1000000000 0.1000000000 0.1000000000 0.1000000000 0.1000000000 0.1000000000 0.1000000000 0.1000000000 0.1000000000 0.1000000000 0.1000000000 0.1000000000 0.1000000000 0.1000000000 0.1000000000 0.1000000000 0.1000000000 0.1000000000 0.1000000000 0.1000000000 0.1000000000 0.1000000000 0.1000000000 0.1000000000 0.1000000000 0.1000000000 0.1000000000 0.1000000000 0.1000000000 0.1000000000 0.1000000000 0.1000000000 0.1000000000 0.1000000000 0.1000000000 0.1000000000 0.1000000000 0.1000000000 0.1000000000 0.1000000000 0.1000000000 0.1000000000 0.1000000000 0.1000000000 0.1000000000 0.1000000000 0.1000000000 0.1000000000 0.1000000000 0.1000000000 0.1000000000 0.1000000000 0.1000000000 0.1000000000 0.1000000000 0.1000000000 0.1000000000 0.1000000000 0.1000000000 0.1000000000 0.1000000000 0.1000000000 0.1000000000 0.1000000000 0.1000000000 0.1000000000 0.1000000000 0.1000000000 0.1000000000 0.1000000000 0.1000000000 0.1000000000 0.1000000000 0.1000000000 0.1000000000 0.1000000000 0.1000000000 0.1000000000 0.1000000000 0.1000000000 0.1000000000 0.1000000000 0.1000000000 0.1000000000 0.1000000000 0.1000000000 0.1000000000 0.1000000000 0.1000000000 0.1000000000 0.1000000000 0.1000000000 0.1000000000 0.1000000000 0.1000000000 0.1000000000 0.1000000000 0.1000000000 0.1000000000 0.1000000000 0.1000000000 0.1000000000 0.1000000000 0.1000000000 0.1000000000 0.1000000000 0.1000000000 0.1000000000 0.1000000000 0.1000000000 0.1000000000 0.1000000000 0.1000000000 0.1000000000 0.1000000000 0.1000000000 0.1000000000 0.1000000000 0.1000000000 0.1000000000 0.1000000000 0.1000000000 0.1000000000 0.1000000000 0.1000000000 0.1000000000 0.1000000000 0.1000000000 0.1000000000 0.1000000000 0.1000000000 0.1000000000 0.1000000000 0.1000000000 0.1000000000 0.1000000000 0.1000000000 0.1000000000 0.1000000000 0.1000000000 0.1000000000 0.1000000000 0.1000000000 0.1000000000 0.1000000000 0.1000000000 0.1000000000 0.1000000000 0.1000000000 0.1000000000 0.1000000000 0.1000000000 0.1000000000 0.1000000000 0.1000000000 0.1000000000 0.1000000000 0.1000000000 0.1000000000 0.1000000000 0.1000000000 0.1000000000 0.1000000000 0.1000000000 0.1000000000 0.1000000000 0.1000000000 0.1000000000 0.1000000000 0.1000000000 0.1000000000 0.1000000000 0.1000000000 0.1000000000 0.1000000000 0.1000000000 0.1000000000 0.1000000000 0.1000000000 0.1000000000 0.1000000000 0.1000000000 0.1000000000 0.1000000000 0.1000000000 0.1000000000 0.1000000000 0.1000000000 0.1000000000 0.1000000000 0.1000000000 0.1000000000 0.1000000000 0.1000000000 0.1000000000 0.1000000000 0.1000000000 0.1000000000 0.1000000000 0.1000000000 0.1000000000 0.1000000000 0.1000000000 0.1000000000 0.1000000000 0.1000000000 0.1000000000 0.1000000000 0.1000000000 0.1000000000 0.1000000000 0.1000000000 0.1000000000 0.1000000000 0.1000000000 0.1000000000 0.1000000000 0.1000000000 0.1000000000 0.1000000000 0.1000000000 0.1000000000 0.1000000000 0.1000000000 0.1000000000 0.1000000000 0.1000000000 0.1000000000 0.1000000000 0.1000000000 0.1000000000 0.1000000000 0.1000000000 0.1000000000 0.1000000000 0.1000000000 0.1000000000 0.1000000000 0.1000000000 0.1000000000 0.1000000000 0.1000000000 0.1000000000 0.1000000000 0.1000000000 0.1000000000 0.1000000000 0.1000000000 0.1000000000 0.1000000000 0.1000000000 0.1000000000 0.1000000000 0.1000000000 0.1000000000 0.1000000000 0.1000000000 0.1000000000 0.1000000000 0.1000000000 0.1000000000 0.1000000000 0.1000000000 0.1000000000 0.1000000000 0.1000000000 0.1000000000 0.1000000000 0.1000000000 0.1000000000 0.1000000000 0.1000000000 0.1000000000 0.1000000000 0.1000000000 0.1000000000 0.1000000000 0.1000000000 0.1000000000 0.1000000000 0.1000000000 0.1000000000 0.1000000000 0.1000000000 0.1000000000 0.1000000000 0.1000000000 0.1000000000 0.1000000000 0.1000000000 0.1000000000 0.1000000000 0.1000000000 0.1000000000 0.1000000000 0.1000000000 0.1000000000 0.1000000000 0.1000000000 0.1000000000 0.1000000000 0.1000000000 0.1000000000 0.1000000000 0.1000000000 0.1000000000 0.1000000000 0.1000000000 0.1000000000 0.1000000000 0.1000000000 0.1000000000 0.1000000000 0.1000000000 0.1000000000 0.1000000000 0.1000000000 0.1000000000 0.1000000000 0.1000000000 0.1000000000 0.1000000000 0.1000000000 0.1000000000 0.1000000000 0.1000000000 0.1000000000 0.1000000000 0.1000000000 0.1000000000 0.1000000000 0.1000000000 0.1000000000 0.1000000000 0.1000000000 0.1000000000 0.1000000000 0.1000000000 0.1000000000 0.1000000000 0.1000000000 0.1000000000 0.1000000000 0.1000000000 0.1000000000 0.1000000000 0.1000000000 0.1000000000 0.1000000000 0.1000000000 0.1000000000 0.1000000000 0.1000000000 0.1000000000 0.1000000000 0.1000000000 0.1000000000 0.1000000000 0.1000000000 0.1000000000 0.1000000000 0.1000000000 0.1000000000 0.1000000000 0.1000000000 0.1000000000 0.1000000000 0.1000000000 0.1000000000 0.1000000000 0.1000000000 0.1000000000 0.1000000000 0.1000000000 0.1000000000 0.1000000000 0.1000000000 0.1000000000 0.1000000000 0.1000000000 0.1000000000 0.1000000000 0.1000000000 0.1000000000 0.1000000000 0.1000000000 0.1000000000 0.1000000000 0.1000000000 0.1000000000 0.1000000000 0.1000000000 0.1000000000 0.1000000000 0.1000000000 0.1000000000 0.1000000000 0.1000000000 0.1000000000 0.1000000000 0.1000000000 0.1000000000 0.1000000000 0.1000000000 0.1000000000 0.1000000000 0.1000000000 0.1000000000 0.1000000000 0.1000000000 0.1000000000 0.1000000000 0.1000000000 0.1000000000 0.1000000000 0.1000000000 0.1000000000 0.1000000000 0.1000000000 0.1000000000 0.1000000000 0.1000000000 0.1000000000 0.1000000000 0.1000000000 0.1000000000 0.1000000000 0.1000000000 0.1000000000 0.1000000000 0.1000000000 0.1000000000 0.1000000000 0.1000000000 0.1000000000 0.1000000000 0.1000000000 0.1000000000 0.1000000000 0.1000000000 0.1000000000 0.1000000000 0.1000000000 0.1000000000 0.1000000000 0.1000000000 0.1000000000 0.1000000000 0.1000000000 0.1000000000 0.1000000000 0.1000000000 0.1000000000 0.1000000000 0.1000000000 0.1000000000 0.1000000000 0.1000000000 0.1000000000 0.1000000000 0.1000000000 0.1000000000 0.1000000000 0.1000000000 0.1000000000 0.1000000000 0.1000000000 0.1000000000 0.1000000000 0.1000000000 0.1000000000 0.1000000000 0.1000000000 0.1000000000 0.1000000000 0.1000000000 0.1000000000 0.1000000000 0.1000000000 0.1000000000 0.1000000000 0.1000000000 0.1000000000 0.1000000000 0.1000000000 0.1000000000 0.1000000000 0.1000000000 0.1000000000 0.1000000000 0.1000000000 0.1000000000 0.1000000000 0.1000000000 0.1000000000 0.1000000000 0.1000000000 0.1000000000 0.1000000000 0.1000000000 0.1000000000 0.1000000000 0.1000000000 0.1000000000 0.1000000000 0.1000000000 0.1000000000 0.1000000000 0.1000000000 0.1000000000 0.1000000000 0.1000000000 0.1000000000 0.1000000000 0.1000000000 0.1000000000 0.1000000000 0.1000000000 0.1000000000 0.1000000000 0.1000000000 0.1000000000 0.1000000000 0.1000000000 0.1000000000 0.1000000000 0.1000000000 0.1000000000 0.1000000000 0.1000000000 0.1000000000 0.1000000000 0.1000000000 0.1000000000 0.1000000000 0.1000000000 0.1000000000 0.1000000000 0.1000000000 0.1000000000 0.1000000000 0.1000000000 0.1000000000 0.1000000000 0.1000000000 0.1000000000 0.1000000000 0.1000000000 0.1000000000 0.1000000000 0.1000000000 0.1000000000 0.1000000000 0.1000000000 0.1000000000 0.1000000000 0.1000000000 0.1000000000 0.1000000000 0.1000000000 0.1000000000 0.1000000000 0.1000000000 0.1000000000 0.1000000000 0.1000000000 0.1000000000 0.1000000000 0.1000000000 0.1000000000 0.1000000000 0.1000000000 0.1000000000 0.1000000000 0.1000000000 0.1000000000 0.1000000000 0.1000000000 0.1000000000 0.1000000000 0.1000000000 0.1000000000 0.1000000000 0.1000000000 0.1000000000 0.1000000000 0.1000000000 0.1000000000 0.1000000000 0.1000000000 0.1000000000 0.1000000000 0.1000000000 0.1000000000 0.1000000000 0.1000000000 0.1000000000 0.1000000000 0.1000000000 0.1000000000 0.1000000000 0.1000000000 0.1000000000 0.1000000000 0.10000000