<?xml version="1.0"?>
<VTKFile type="UnstructuredGrid" version="0.1" byte_order="LittleEndian">
  <UnstructuredGrid>
    <FieldData>
      <DataArray type="Float32" Name="TIME"  NumberOfTuples="1" format="ascii"> 2.9500000000 </DataArray>
      <DataArray type="Int32"   Name="STEP"  NumberOfTuples="1" format="ascii"> 737500 </DataArray>
    </FieldData>
    <Piece NumberOfPoints="8" NumberOfCells="8">
      <Points>
        <DataArray type="Float32" NumberOfComponents="3" format="ascii">
 -0.4374844004 9.2536835468 0.0000000000 -0.3878345989 9.3033333483 -0.0728547057 -0.4467009537 9.2444669935 0.0142134602 -0.4374844004 9.2536835468 0.0005814221 -0.2903394616 10.5804973701 0.0000000000 -0.3184906938 10.6207014963 -0.0257796801 -0.2707406864 10.5525074184 0.0612884858 -0.2903394616 10.5804973701 0.0255517498
        </DataArray>
      </Points>
      <Cells>
        <DataArray type="Int32" Name="connectivity" format="ascii">
 0 1 2 3 4 5 6 7
        </DataArray>
        <DataArray type="Int32" Name="offsets" format="ascii">
 1 2 3 4 5 6 7 8
        </DataArray>
        <DataArray type="UInt8" Name="types" format="ascii">
 1 1 1 1 1 1 1 1
        </DataArray>
      </Cells>
      <PointData Scalars="overlap">
        <DataArray type="Float32" Name="overlap" format="ascii">
 -0.0435236116 -0.0758458402 -0.0447563857 -0.0435224339 -0.0133164617 -0.0312688383 -0.0209644256 -0.0103980460
        </DataArray>
        <DataArray type="Float32" Name="contact normal" NumberOfComponents="3" format="ascii">
 0.7071009790 -0.7071009790 0.0040510557 0.2947802725 -0.8594771858 0.4176165203 0.7647485740 -0.6374097593 -0.0941722745 0.7071067812 -0.7071067812 0.0000000000 0.7980551437 0.5588042275 0.2254901838 0.9033676147 0.1761087549 0.3910404827 0.5855772020 0.7548638297 -0.2954317842 0.8191520443 0.5735764364 0.0000000000
        </DataArray>
        <DataArray type="Float32" Name="contact force" NumberOfComponents="3" format="ascii">
 0.0000000000 0.0000000000 0.0000000000 0.0000000000 0.0000000000 0.0000000000 0.0000000000 0.0000000000 0.0000000000 0.0000000000 0.0000000000 0.0000000000 0.0000000000 0.0000000000 0.0000000000 0.0000000000 0.0000000000 0.0000000000 0.0000000000 0.0000000000 0.0000000000 0.0000000000 0.0000000000 0.0000000000
        </DataArray>
        <DataArray type="Float32" Name="contact torque" NumberOfComponents="3" format="ascii">
 0.0000000000 0.0000000000 0.0000000000 0.0000000000 0.0000000000 0.0000000000 0.0000000000 0.0000000000 0.0000000000 0.0000000000 0.0000000000 0.0000000000 0.0000000000 0.0000000000 0.0000000000 0.0000000000 0.0000000000 0.0000000000 0.0000000000 0.0000000000 0.0000000000 0.0000000000 0.0000000000 0.0000000000
        </DataArray>
        <DataArray type="Float32" Name="sliding spring" NumberOfComponents="3" format="ascii">
 0.0000000000 0.0000000000 0.0000000000 0.0000000000 0.0000000000 0.0000000000 0.0000000000 0.0000000000 0.0000000000 0.0000000000 0.0000000000 0.0000000000 0.0000000000 0.0000000000 0.0000000000 0.0000000000 0.0000000000 0.0000000000 0.0000000000 0.0000000000 0.0000000000 0.0000000000 0.0000000000 0.0000000000
        </DataArray>
        <DataArray type="Float32" Name="rolling spring" NumberOfComponents="3" format="ascii">
 0.0000000000 0.0000000000 0.0000000000 0.0000000000 0.0000000000 0.0000000000 0.0000000000 0.0000000000 0.0000000000 0.0000000000 0.0000000000 0.0000000000 0.0000000000 0.0000000000 0.0000000000 0.0000000000 0.0000000000 0.0000000000 0.0000000000 0.0000000000 0.0000000000 0.0000000000 0.0000000000 0.0000000000
        </DataArray>
        <DataArray type="Float32" Name="torsion spring" NumberOfComponents="3" format="ascii">
 0.0000000000 0.0000000000 0.0000000000 0.0000000000 0.0000000000 0.0000000000 0.0000000000 0.0000000000 0.0000000000 0.0000000000 0.0000000000 0.0000000000 0.0000000000 0.0000000000 0.0000000000 0.0000000000 0.0000000000 0.0000000000 0.0000000000 0.0000000000 0.0000000000 0.0000000000 0.0000000000 0.0000000000
        </DataArray>
      </PointData>
    </Piece>
  </UnstructuredGrid>
</VTKFile>
