<?xml version="1.0"?>
<VTKFile type="UnstructuredGrid" version="0.1" byte_order="LittleEndian">
  <UnstructuredGrid>
    <FieldData>
      <DataArray type="Float32" Name="TIME"  NumberOfTuples="1" format="ascii"> 2.3500000000 </DataArray>
      <DataArray type="Int32"   Name="STEP"  NumberOfTuples="1" format="ascii"> 587500 </DataArray>
    </FieldData>
    <Piece NumberOfPoints="11600" NumberOfCells="11600">
      <Points>
        <DataArray type="Float32" NumberOfComponents="3" format="ascii">
 -0.4054318960 -0.7788534632 -0.0000028768 -0.2054745825 -0.7747215995 -0.0000028665 -0.0055172662 -0.7705897359 -0.0000028568 0.1944400476 -0.7664578720 -0.0000028519 0.3943973640 -0.7623260077 -0.0000028451 0.5943546786 -0.7581941439 -0.0000028384 0.7943119933 -0.7540622799 -0.0000028306 0.9942693089 -0.7499304161 -0.0000028205 1.1942266230 -0.7457985520 -0.0000028089 1.3941839387 -0.7416666878 -0.0000027829 1.5941412533 -0.7375348237 -0.0000027491 1.7940985680 -0.7334029598 -0.0000027059 1.9940558834 -0.7292710960 -0.0000026527 2.1940131977 -0.7251392320 -0.0000025829 2.3939705133 -0.7210073677 -0.0000024979 2.5939278279 -0.7168755038 -0.0000024033 2.7938851425 -0.7127436398 -0.0000022995 2.9938424581 -0.7086117760 -0.0000021881 3.1937997723 -0.7044799119 -0.0000020593 3.3937570878 -0.7003480477 -0.0000019317 3.5937144024 -0.6962161838 -0.0000018013 3.7936717170 -0.6920843198 -0.0000016694 3.9936290324 -0.6879524559 -0.0000015376 4.1935863467 -0.6838205919 -0.0000013996 4.3935436620 -0.6796887277 -0.0000012748 4.5935009766 -0.6755568639 -0.0000011542 4.7934582912 -0.6714249999 -0.0000010389 4.9934156067 -0.6672931360 -0.0000009294 5.1933729210 -0.6631612720 -0.0000008242 5.3933302364 -0.6590294079 -0.0000007322 5.5932875511 -0.6548975439 -0.0000006451 5.7932448656 -0.6507656799 -0.0000005625 5.9932021810 -0.6466338161 -0.0000004834 6.1931594953 -0.6425019521 -0.0000004064 6.3931168106 -0.6383700881 -0.0000003379 6.5930741252 -0.6342382242 -0.0000002733 6.7930314397 -0.6301063603 -0.0000002135 6.9929887551 -0.6259744966 -0.0000001590 7.1929460694 -0.6218426326 -0.0000001112 7.3929033849 -0.6177107685 -0.0000000753 7.5928606994 -0.6135789047 -0.0000000449 7.7928180140 -0.6094470408 -0.0000000194 7.9927753293 -0.6053151771 0.0000000023 8.1927326436 -0.6011833132 0.0000000201 8.3926899590 -0.5970514491 0.0000000353 8.5926472735 -0.5929195853 0.0000000496 8.7926045882 -0.5887877214 0.0000000633 8.9925619036 -0.5846558577 0.0000000770 9.1925192179 -0.5805239939 0.0000000921 9.3924765332 -0.5763921298 0.0000001091 9.5924338478 -0.5722602661 0.0000001292 9.7923911624 -0.5681284023 0.0000001537 9.9923484776 -0.5639965385 0.0000001837 10.1923057920 -0.5598646748 0.0000002241 10.3922631071 -0.5557328108 0.0000002745 10.5922204217 -0.5516009471 0.0000003311 10.7921777362 -0.5474690833 0.0000003933 10.9921350518 -0.5433372197 0.0000004597 11.1920923659 -0.5392053559 0.0000005280 11.3920496814 -0.5350734920 0.0000005992 11.5920069959 -0.5309416282 0.0000006686 11.7919643104 -0.5268097645 0.0000007346 11.9919216261 -0.5226779010 0.0000007960 12.1918789401 -0.5185460370 0.0000008400 12.3918362561 -0.5144141731 0.0000008823 12.5917935702 -0.5102823096 0.0000009050 12.7917508856 -0.5061504450 0.0000009263 12.9917082014 -0.5020185816 0.0000009420 13.1916655155 -0.4978867178 0.0000009433 13.3916228333 -0.4937548539 0.0000009472 13.5915801475 -0.4896229879 0.0000009464 13.8293245535 -0.4758393589 0.0000000000 14.0293229711 -0.4766347879 0.0000000000 14.2293213886 -0.4774302168 0.0000000000 14.4293198088 -0.4782256451 0.0000000000 14.6293182264 -0.4790210743 0.0000000000 14.8293166452 -0.4798165027 0.0000000000 15.0293150639 -0.4806119319 0.0000000000 15.2293134817 -0.4814073606 0.0000000000 15.4293119013 -0.4822027894 0.0000000000 15.6293103192 -0.4829982183 0.0000000000 15.8293087382 -0.4837936472 0.0000000000 16.0293071569 -0.4845890756 0.0000000000 16.3052202127 -0.3587145288 0.0000000218 16.5051541439 -0.3535741779 0.0000000214 16.7050880738 -0.3484338277 0.0000000212 16.9050220059 -0.3432934772 0.0000000210 17.1049559366 -0.3381531270 0.0000000207 17.3048898673 -0.3330127767 0.0000000205 17.5048237993 -0.3278724267 0.0000000202 17.7047577296 -0.3227320765 0.0000000198 17.9046916614 -0.3175917262 0.0000000195 18.1046255923 -0.3124513760 0.0000000191 18.3045595231 -0.3073110258 0.0000000187 18.5044934555 -0.3021706757 0.0000000183 18.7044273857 -0.2970303258 0.0000000179 18.9043613182 -0.2918899752 0.0000000175 19.1042952492 -0.2867496250 0.0000000171 19.3042291801 -0.2816092745 0.0000000167 19.5041631106 -0.2764689240 0.0000000162 -0.3090315377 -0.6036194184 -0.0000027769 -0.1090742239 -0.5994875551 -0.0000027658 0.0908830916 -0.5953556910 -0.0000027558 0.2908404073 -0.5912238271 -0.0000027468 0.4907977220 -0.5870919630 -0.0000027374 0.6907550367 -0.5829600989 -0.0000027270 0.8907123514 -0.5788282348 -0.0000027148 1.0906696667 -0.5746963707 -0.0000026991 1.2906269822 -0.5705645068 -0.0000026754 1.4905842968 -0.5664326427 -0.0000026432 1.6905416115 -0.5623007787 -0.0000026028 1.8904989262 -0.5581689145 -0.0000025533 2.0904562414 -0.5540370505 -0.0000024927 2.2904135568 -0.5499051866 -0.0000024167 2.4903708714 -0.5457733225 -0.0000023301 2.6903281861 -0.5416414584 -0.0000022348 2.8902855007 -0.5375095943 -0.0000021315 3.0902428159 -0.5333777303 -0.0000020200 3.2902001311 -0.5292458665 -0.0000019008 3.4901574458 -0.5251140024 -0.0000017788 3.6901147606 -0.5209821383 -0.0000016549 3.8900720753 -0.5168502743 -0.0000015301 4.0900293903 -0.5127184103 -0.0000014049 4.2899867055 -0.5085865465 -0.0000012828 4.4899440201 -0.5044546825 -0.0000011653 4.6899013348 -0.5003228185 -0.0000010523 4.8898586496 -0.4961909544 -0.0000009441 5.0898159647 -0.4920590905 -0.0000008414 5.2897732799 -0.4879272264 -0.0000007476 5.4897305945 -0.4837953626 -0.0000006605 5.6896879092 -0.4796634986 -0.0000005783 5.8896452239 -0.4755316346 -0.0000005002 6.0896025390 -0.4713997706 -0.0000004259 6.2895598541 -0.4672679066 -0.0000003576 6.4895171687 -0.4631360427 -0.0000002940 6.6894744835 -0.4590041789 -0.0000002349 6.8894317982 -0.4548723150 -0.0000001808 7.0893891132 -0.4507404510 -0.0000001328 7.2893464283 -0.4466085870 -0.0000000942 7.4893037430 -0.4424767232 -0.0000000623 7.6892610577 -0.4383448594 -0.0000000354 7.8892183724 -0.4342129954 -0.0000000124 8.0891756874 -0.4300811315 0.0000000072 8.2891330025 -0.4259492675 0.0000000238 8.4890903171 -0.4218174038 0.0000000388 8.6890476319 -0.4176855399 0.0000000531 8.8890049465 -0.4135536761 0.0000000671 9.0889622616 -0.4094218123 0.0000000812 9.2889195767 -0.4052899483 0.0000000969 9.4888768914 -0.4011580845 0.0000001149 9.6888342061 -0.3970262208 0.0000001365 9.8887915207 -0.3928943570 0.0000001630 10.0887488358 -0.3887624932 0.0000001968 10.2887061507 -0.3846306291 0.0000002415 10.4886634654 -0.3804987655 0.0000002942 10.6886207802 -0.3763669019 0.0000003534 10.8885780948 -0.3722350381 0.0000004181 11.0885354098 -0.3681031743 0.0000004873 11.2884927249 -0.3639713106 0.0000005602 11.4884500396 -0.3598394468 0.0000006339 11.6884073543 -0.3557075832 0.0000007060 11.8883646688 -0.3515757195 0.0000007745 12.0883219841 -0.3474438556 0.0000008362 12.2882792992 -0.3433119922 0.0000008880 12.4882366142 -0.3391801282 0.0000009309 12.6881939294 -0.3350482646 0.0000009627 12.8881512440 -0.3309164011 0.0000009877 13.0881085598 -0.3267845367 0.0000010051 13.2880658752 -0.3226526740 0.0000010146 13.4880231904 -0.3185208091 0.0000010201 13.7300142036 -0.3022379366 0.0000000000 13.9300126232 -0.3030333638 0.0000000000 14.1300110417 -0.3038287924 0.0000000000 14.3300094603 -0.3046242216 0.0000000000 14.5300078788 -0.3054196502 0.0000000000 14.7300062974 -0.3062150792 0.0000000000 14.9300047157 -0.3070105081 0.0000000000 15.1300031341 -0.3078059368 0.0000000000 15.3300015531 -0.3086013661 0.0000000000 15.5299999715 -0.3093967944 0.0000000000 15.7299983903 -0.3101922230 0.0000000000 15.9299968062 -0.3109876541 0.0000000000 16.2008015738 -0.1881368423 0.0000000210 16.4007355033 -0.1829964913 0.0000000207 16.6006694347 -0.1778561403 0.0000000206 16.8006033662 -0.1727157900 0.0000000202 17.0005372972 -0.1675754397 0.0000000200 17.2004712282 -0.1624350895 0.0000000197 17.4004051591 -0.1572947394 0.0000000194 17.6003390906 -0.1521543890 0.0000000191 17.8002730220 -0.1470140388 0.0000000188 18.0002069530 -0.1418736887 0.0000000184 18.2001408840 -0.1367333386 0.0000000180 18.4000748152 -0.1315929888 0.0000000176 18.6000087469 -0.1264526383 0.0000000172 18.7999426786 -0.1213122883 0.0000000168 18.9998766097 -0.1161719380 0.0000000163 19.1998105408 -0.1110315876 0.0000000159 19.3997444718 -0.1058912373 0.0000000155 19.5996784018 -0.1007508869 0.0000000150 -0.4125884943 -0.4325172365 -0.0000026889 -0.2126311801 -0.4283853728 -0.0000026762 -0.0126738642 -0.4242535090 -0.0000026638 0.1872834495 -0.4201216450 -0.0000026518 0.3872407654 -0.4159897810 -0.0000026396 0.5871980801 -0.4118579169 -0.0000026265 0.7871553950 -0.4077260529 -0.0000026115 0.9871127105 -0.4035941889 -0.0000025935 1.1870700247 -0.3994623245 -0.0000025697 1.3870273401 -0.3953304608 -0.0000025379 1.5869846550 -0.3911985966 -0.0000024991 1.7869419697 -0.3870667326 -0.0000024524 1.9868992850 -0.3829348686 -0.0000023972 2.1868565992 -0.3788030043 -0.0000023298 2.3868139146 -0.3746711406 -0.0000022508 2.5867712295 -0.3705392765 -0.0000021636 2.7867285443 -0.3664074125 -0.0000020691 2.9866858594 -0.3622755485 -0.0000019683 3.1866431738 -0.3581436843 -0.0000018604 3.3866004891 -0.3540118204 -0.0000017478 3.5865578040 -0.3498799564 -0.0000016328 3.7865151188 -0.3457480923 -0.0000015165 3.9864724339 -0.3416162284 -0.0000014000 4.1864297484 -0.3374843642 -0.0000012845 4.3863870635 -0.3333525004 -0.0000011719 4.5863443783 -0.3292206365 -0.0000010624 4.7863016931 -0.3250887725 -0.0000009567 4.9862590083 -0.3209569084 -0.0000008556 5.1862163227 -0.3168250445 -0.0000007613 5.3861736380 -0.3126931805 -0.0000006742 5.5861309528 -0.3085613165 -0.0000005923 5.7860882675 -0.3044294526 -0.0000005150
[...]
      <PointData Scalars="radius">
        <DataArray type="Float32" Name="radius" format="ascii">
 0.1000000000 0.1000000000 0.1000000000 0.1000000000 0.1000000000 0.1000000000 0.1000000000 0.1000000000 0.1000000000 0.1000000000 0.1000000000 0.1000000000 0.1000000000 0.1000000000 0.1000000000 0.1000000000 0.1000000000 0.1000000000 0.1000000000 0.1000000000 0.1000000000 0.1000000000 0.1000000000 0.1000000000 0.1000000000 0.1000000000 0.1000000000 0.1000000000 0.1000000000 0.1000000000 0.1000000000 0.1000000000 0.1000000000 0.1000000000 0.1000000000 0.1000000000 0.1000000000 0.1000000000 0.1000000000 0.1000000000 0.1000000000 0.1000000000 0.1000000000 0.1000000000 0.1000000000 0.1000000000 0.1000000000 0.1000000000 0.1000000000 0.1000000000 0.1000000000 0.1000000000 0.1000000000 0.1000000000 0.1000000000 0.1000000000 0.1000000000 0.1000000000 0.1000000000 0.1000000000 0.1000000000 0.1000000000 0.1000000000 0.1000000000 0.1000000000 0.1000000000 0.1000000000 0.1000000000 0.1000000000 0.1000000000 0.1000000000 0.1000000000 0.1000000000 0.1000000000 0.1000000000 0.1000000000 0.1000000000 0.1000000000 0.1000000000 0.1000000000 0.1000000000 0.1000000000 0.1000000000 0.1000000000 0.1000000000 0.1000000000 0.1000000000 0.1000000000 0.1000000000 0.1000000000 0.1000000000 0.1000000000 0.1000000000 0.1000000000 0.1000000000 0.1000000000 0.1000000000 0.1000000000 0.1000000000 0.1000000000 0.1000000000 0.1000000000 0.1000000000 0.1000000000 0.1000000000 0.1000000000 0.1000000000 0.1000000000 0.1000000000 0.1000000000 0.1000000000 0.1000000000 0.1000000000 0.1000000000 0.1000000000 0.1000000000 0.1000000000 0.1000000000 0.1000000000 0.1000000000 0.1000000000 0.1000000000 0.1000000000 0.1000000000 0.1000000000 0.1000000000 0.1000000000 0.1000000000 0.1000000000 0.1000000000 0.1000000000 0.1000000000 0.1000000000 0.1000000000 0.1000000000 0.1000000000 0.1000000000 0.1000000000 0.1000000000 0.1000000000 0.1000000000 0.1000000000 0.1000000000 0.1000000000 0.1000000000 0.1000000000 0.1000000000 0.1000000000 0.1000000000 0.1000000000 0.1000000000 0.1000000000 0.1000000000 0.1000000000 0.1000000000 0.1000000000 0.1000000000 0.1000000000 0.1000000000 0.1000000000 0.1000000000 0.1000000000 0.1000000000 0.1000000000 0.1000000000 0.1000000000 0.1000000000 0.1000000000 0.1000000000 0.1000000000 0.1000000000 0.1000000000 0.1000000000 0.1000000000 0.1000000000 0.1000000000 0.1000000000 0.1000000000 0.1000000000 0.1000000000 0.1000000000 0.1000000000 0.1000000000 0.1000000000 0.1000000000 0.1000000000 0.1000000000 0.1000000000 0.1000000000 0.1000000000 0.1000000000 0.1000000000 0.1000000000 0.1000000000 0.1000000000 0.1000000000 0.1000000000 0.1000000000 0.1000000000 0.1000000000 0.1000000000 0.1000000000 0.1000000000 0.1000000000 0.1000000000 0.1000000000 0.1000000000 0.1000000000 0.1000000000 0.1000000000 0.1000000000 0.1000000000 0.1000000000 0.1000000000 0.1000000000 0.1000000000 0.1000000000 0.1000000000 0.1000000000 0.1000000000 0.1000000000 0.1000000000 0.1000000000 0.1000000000 0.1000000000 0.1000000000 0.1000000000 0.1000000000 0.1000000000 0.1000000000 0.1000000000 0.1000000000 0.1000000000 0.1000000000 0.1000000000 0.1000000000 0.1000000000 0.1000000000 0.1000000000 0.1000000000 0.1000000000 0.1000000000 0.1000000000 0.1000000000 0.1000000000 0.1000000000 0.1000000000 0.1000000000 0.1000000000 0.1000000000 0.1000000000 0.1000000000 0.1000000000 0.1000000000 0.1000000000 0.1000000000 0.1000000000 0.1000000000 0.1000000000 0.1000000000 0.1000000000 0.1000000000 0.1000000000 0.1000000000 0.1000000000 0.1000000000 0.1000000000 0.1000000000 0.1000000000 0.1000000000 0.1000000000 0.1000000000 0.1000000000 0.1000000000 0.1000000000 0.1000000000 0.1000000000 0.1000000000 0.1000000000 0.1000000000 0.1000000000 0.1000000000 0.1000000000 0.1000000000 0.1000000000 0.1000000000 0.1000000000 0.1000000000 0.1000000000 0.1000000000 0.1000000000 0.1000000000 0.1000000000 0.1000000000 0.1000000000 0.1000000000 0.1000000000 0.1000000000 0.1000000000 0.1000000000 0.1000000000 0.1000000000 0.1000000000 0.1000000000 0.1000000000 0.1000000000 0.1000000000 0.1000000000 0.1000000000 0.1000000000 0.1000000000 0.1000000000 0.1000000000 0.1000000000 0.1000000000 0.1000000000 0.1000000000 0.1000000000 0.1000000000 0.1000000000 0.1000000000 0.1000000000 0.1000000000 0.1000000000 0.1000000000 0.1000000000 0.1000000000 0.1000000000 0.1000000000 0.1000000000 0.1000000000 0.1000000000 0.1000000000 0.1000000000 0.1000000000 0.1000000000 0.1000000000 0.1000000000 0.1000000000 0.1000000000 0.1000000000 0.1000000000 0.1000000000 0.1000000000 0.1000000000 0.1000000000 0.1000000000 0.1000000000 0.1000000000 0.1000000000 0.1000000000 0.1000000000 0.1000000000 0.1000000000 0.1000000000 0.1000000000 0.1000000000 0.1000000000 0.1000000000 0.1000000000 0.1000000000 0.1000000000 0.1000000000 0.1000000000 0.1000000000 0.1000000000 0.1000000000 0.1000000000 0.1000000000 0.1000000000 0.1000000000 0.1000000000 0.1000000000 0.1000000000 0.1000000000 0.1000000000 0.1000000000 0.1000000000 0.1000000000 0.1000000000 0.1000000000 0.1000000000 0.1000000000 0.1000000000 0.1000000000 0.1000000000 0.1000000000 0.1000000000 0.1000000000 0.1000000000 0.1000000000 0.1000000000 0.1000000000 0.1000000000 0.1000000000 0.1000000000 0.1000000000 0.1000000000 0.1000000000 0.1000000000 0.1000000000 0.1000000000 0.1000000000 0.1000000000 0.1000000000 0.1000000000 0.1000000000 0.1000000000 0.1000000000 0.1000000000 0.1000000000 0.1000000000 0.1000000000 0.1000000000 0.1000000000 0.1000000000 0.1000000000 0.1000000000 0.1000000000 0.1000000000 0.1000000000 0.1000000000 0.1000000000 0.1000000000 0.1000000000 0.1000000000 0.1000000000 0.1000000000 0.1000000000 0.1000000000 0.1000000000 0.1000000000 0.1000000000 0.1000000000 0.1000000000 0.1000000000 0.1000000000 0.1000000000 0.1000000000 0.1000000000 0.1000000000 0.1000000000 0.1000000000 0.1000000000 0.1000000000 0.1000000000 0.1000000000 0.1000000000 0.1000000000 0.1000000000 0.1000000000 0.1000000000 0.1000000000 0.1000000000 0.1000000000 0.1000000000 0.1000000000 0.1000000000 0.1000000000 0.1000000000 0.1000000000 0.1000000000 0.1000000000 0.1000000000 0.1000000000 0.1000000000 0.1000000000 0.1000000000 0.1000000000 0.1000000000 0.1000000000 0.1000000000 0.1000000000 0.1000000000 0.1000000000 0.1000000000 0.1000000000 0.1000000000 0.1000000000 0.1000000000 0.1000000000 0.1000000000 0.1000000000 0.1000000000 0.1000000000 0.1000000000 0.1000000000 0.1000000000 0.1000000000 0.1000000000 0.1000000000 0.1000000000 0.1000000000 0.1000000000 0.1000000000 0.1000000000 0.1000000000 0.1000000000 0.1000000000 0.1000000000 0.1000000000 0.1000000000 0.1000000000 0.1000000000 0.1000000000 0.1000000000 0.1000000000 0.1000000000 0.1000000000 0.1000000000 0.1000000000 0.1000000000 0.1000000000 0.1000000000 0.1000000000 0.1000000000 0.1000000000 0.1000000000 0.1000000000 0.1000000000 0.1000000000 0.1000000000 0.1000000000 0.1000000000 0.1000000000 0.1000000000 0.1000000000 0.1000000000 0.1000000000 0.1000000000 0.1000000000 0.1000000000 0.1000000000 0.1000000000 0.1000000000 0.1000000000 0.1000000000 0.1000000000 0.1000000000 0.1000000000 0.1000000000 0.1000000000 0.1000000000 0.1000000000 0.1000000000 0.1000000000 0.1000000000 0.1000000000 0.1000000000 0.1000000000 0.1000000000 0.1000000000 0.1000000000 0.1000000000 0.1000000000 0.1000000000 0.1000000000 0.1000000000 0.1000000000 0.1000000000 0.1000000000 0.1000000000 0.1000000000 0.1000000000 0.1000000000 0.1000000000 0.1000000000 0.1000000000 0.1000000000 0.1000000000 0.1000000000 0.1000000000 0.1000000000 0.1000000000 0.1000000000 0.1000000000 0.1000000000 0.1000000000 0.1000000000 0.1000000000 0.1000000000 0.1000000000 0.1000000000 0.1000000000 0.1000000000 0.1000000000 0.1000000000 0.1000000000 0.1000000000 0.1000000000 0.1000000000 0.1000000000 0.1000000000 0.1000000000 0.1000000000 0.1000000000 0.1000000000 0.1000000000 0.1000000000 0.1000000000 0.1000000000 0.1000000000 0.1000000000 0.1000000000 0.1000000000 0.1000000000 0.1000000000 0.1000000000 0.1000000000 0.1000000000 0.1000000000 0.1000000000 0.1000000000 0.1000000000 0.1000000000 0.1000000000 0.1000000000 0.1000000000 0.1000000000 0.1000000000 0.1000000000 0.1000000000 0.1000000000 0.1000000000 0.1000000000 0.1000000000 0.1000000000 0.1000000000 0.1000000000 0.1000000000 0.1000000000 0.1000000000 0.1000000000 0.1000000000 0.1000000000 0.1000000000 0.1000000000 0.1000000000 0.1000000000 0.1000000000 0.1000000000 0.1000000000 0.1000000000 0.1000000000 0.1000000000 0.1000000000 0.1000000000 0.1000000000 0.1000000000 0.1000000000 0.1000000000 0.1000000000 0.1000000000 0.1000000000 0.1000000000 0.1000000000 0.1000000000 0.1000000000 0.1000000000 0.1000000000 0.1000000000 0.1000000000 0.1000000000 0.1000000000 0.1000000000 0.1000000000 0.1000000000 0.1000000000 0.1000000000 0.1000000000 0.1000000000 0.1000000000 0.1000000000 0.1000000000 0.1000000000 0.1000000000 0.1000000000 0.1000000000 0.1000000000 0.1000000000 0.1000000000 0.1000000000 0.1000000000 0.1000000000 0.1000000000 0.1000000000 0.1000000000 0.1000000000 0.1000000000 0.1000000000 0.1000000000 0.1000000000 0.1000000000 0.1000000000 0.1000000000 0.1000000000 0.1000000000 0.1000000000 0.1000000000 0.1000000000 0.1000000000 0.1000000000 0.1000000000 0.1000000000 0.1000000000 0.1000000000 0.1000000000 0.1000000000 0.1000000000 0.1000000000 0.1000000000 0.1000000000 0.1000000000 0.1000000000 0.1000000000 0.1000000000 0.1000000000 0.1000000000 0.1000000000 0.1000000000 0.1000000000 0.1000000000 0.1000000000 0.1000000000 0.1000000000 0.1000000000 0.1000000000 0.1000000000 0.1000000000 0.1000000000 0.1000000000 0.1000000000 0.1000000000 0.1000000000 0.1000000000 0.1000000000 0.1000000000 0.1000000000 0.1000000000 0.1000000000 0.1000000000 0.1000000000 0.1000000000 0.1000000000 0.1000000000 0.1000000000 0.1000000000 0.1000000000 0.1000000000 0.1000000000 0.1000000000 0.1000000000 0.1000000000 0.1000000000 0.1000000000 0.1000000000 0.1000000000 0.1000000000 0.1000000000 0.1000000000 0.1000000000 0.1000000000 0.1000000000 0.1000000000 0.1000000000 0.1000000000 0.1000000000 0.1000000000 0.1000000000 0.1000000000 0.1000000000 0.1000000000 0.1000000000 0.1000000000 0.1000000000 0.1000000000 0.1000000000 0.1000000000 0.1000000000 0.1000000000 0.1000000000 0.1000000000 0.1000000000 0.1000000000 0.1000000000 0.1000000000 0.1000000000 0.1000000000 0.1000000000 0.1000000000 0.1000000000 0.1000000000 0.1000000000 0.1000000000 0.1000000000 0.1000000000 0.1000000000 0.1000000000 0.1000000000 0.1000000000 0.1000000000 0.1000000000 0.1000000000 0.1000000000 0.1000000000 0.1000000000 0.1000000000 0.1000000000 0.1000000000 0.1000000000 0.1000000000 0.1000000000 0.1000000000 0.1000000000 0.1000000000 0.1000000000 0.1000000000 0.1000000000 0.1000000000 0.1000000000 0.1000000000 0.1000000000 0.1000000000 0.1000000000 0.1000000000 0.1000000000 0.1000000000 0.1000000000 0.1000000000 0.1000000000 0.1000000000 0.1000000000 0.1000000000 0.1000000000 0.1000000000 0.1000000000 0.1000000000 0.1000000000 0.1000000000 0.1000000000 0.1000000000 0.1000000000 0.1000000000 0.1000000000 0.1000000000 0.1000000000 0.1000000000 0.1000000000 0.1000000000 0.1000000000 0.1000000000 0.1000000000 0.1000000000 0.1000000000 0.1000000000 0.1000000000 0.1000000000 0.1000000000 0.1000000000 0.1000000000 0.1000000000 0.1000000000 0.1000000000 0.1000000000 0.1000000000 0.1000000000 0.1000000000 0.1000000000 0.1000000000 0.1000000000 0.1000000000 0.1000000000 0.1000000000 0.1000000000 0.1000000000 0.1000000000 0.1000000000 0.1000000000 0.1000000000 0.1000000000 0.1000000000 0.1000000000 0.1000000000 0.1000000000 0.1000000000 0.1000000000 0.1000000000 0.1000000000 0.1000000000 0.1000000000 0.1000000000 0.1000000000 0.1000000000 0.1000000000 0.1000000000 0.1000000000 0.1000000000 0.1000000000 0.1000000000 0.1000000000 0.1000000000 0.1000000000 0.1000000000 0.1000000000 0.1000000000 0.1000000000 0.1000000000 0.1000000000 0.1000000000 0.1000000000 0.1000000000 0.1000000000 0.1000000000 0.1000000000 0.1000000000 0.1000000000 0.1000000000 0.1000000000 0.1000000000 0.1000000000 0.1000000000 0.1000000000 0.1000000000 0.1000000000 0.1000000000 0.1000000000 0.1000000000 0.1000000000 0.1000000000 0.1000000000 0.1000000000 0.1000000000 0.1000000000 0.1000000000 0.1000000000 0.1000000000 0.1000000000 0.1000000000 0.1000000000 0.1000000000 0.1000000000 0.1000000000 0.1000000000 0.1000000000 0.1000000000 0.1000000000 0.1000000000 0.1000000000 0.1000000000 0.1000000000 0.1000000000 0.1000000000 0.1000000000 0.1000000000 0.1000000000 0.1000000000 0.1000000000 0.1000000000 0.1000000000 0.1000000000 0.1000000000 0.1000000000 0.1000000000 0.1000000000 0.1000000000 0.1000000000 0.1000000000 0.1000000000 0.1000000000 0.1000000000 0.1000000000 0.1000000000 0.1000000000 0.1000000000 0.1000000000 0.1000000000 0.1000000000 0.1000000000 0.1000000000 0.1000000000 0.1000000000 0.1000000000 0.1000000000 0.1000000000 0.1000000000 0.1000000000 0.1000000000 0.1000000000 0.1000000000 0.1000000000 0.1000000000 0.1000000000 0.1000000000 0.1000000000 0.1000000000 0.1000000000 0.1000000000 0.1000000000 0.1000000000 0.1000000000 0.1000000000 0.1000000000 0.1000000000 0.1000000000 0.1000000000 0.1000000000 0.1000000000 0.1000000000 0.1000000000 0.1000000000 0.1000000000 0.1000000000 0.1000000000 0.1000000000 0.1000000000 0.1000000000 0.1000000000 0.1000000000 0.1000000000 0.1000000000 0.1000000000 0.1000000000 0.1000000000 0.1000000000 0.1000000000 0.1000000000 0.1000000000 0.1000000000 0.1000000000 0.1000000000 0.1000000000 0.1000000000 0.1000000000 0.1000000000 0.1000000000 0.1000000000 0.1000000000 0.1000000000 0.1000000000 0.1000000000 0.1000000000 0.1000000000 0.1000000000 0.1000000000 0.1000000000 0.1000000000 0.1000000000 0.1000000000 0.1000000000 0.1000000000 0.1000000000 0.1000000000 0.1000000000 0.1000000000 0.1000000000 0.1000000000 0.1000000000 0.1000000000 0.1000000000 0.1000000000 0.1000000000 0.1000000000 0.1000000000 0.1000000000 0.1000000000 0.1000000000 0.1000000000 0.1000000000 0.1000000000 0.1000000000 0.1000000000 0.1000000000 0.1000000000 0.1000000000 0.1000000000 0.1000000000 0.1000000000 0.1000000000 0.1000000000 0.1000000000 0.1000000000 0.1000000000 0.1000000000 0.1000000000 0.1000000000 0.1000000000 0.1000000000 0.1000000000 0.1000000000 0.1000000000 0.1000000000 0.1000000000 0.1000000000 0.1000000000 0.1000000000 0.1000000000 0.1000000000 0.1000000000 0.1000000000 0.1000000000 0.1000000000 0.1000000000 0.1000000000 0.1000000000 0.1000000000 0.1000000000 0.1000000000 0.1000000000 0.1000000000 0.1000000000 0.1000000000 0.1000000000 0.1000000000 0.1000000000 0.1000000000 0.1000000000 0.1000000000 0.1000000000 0.1000000000 0.1000000000 0.1000000000 0.1000000000 0.1000000000 0.1000000000 0.1000000000 0.1000000000 0.1000000000 0.1000000000 0.1000000000 0.1000000000 0.1000000000 0.1000000000 0.1000000000 0.1000000000 0.1000000000 0.1000000000 0.1000000000 0.1000000000 0.1000000000 0.1000000000 0.1000000000 0.1000000000 0.1000000000 0.1000000000 0.1000000000 0.1000000000 0.1000000000 0.1000000000 0.1000000000 0.1000000000 0.1000000000 0.1000000000 0.1000000000 0.1000000000 0.1000000000 0.1000000000 0.1000000000 0.1000000000 0.1000000000 0.1000000000 0.1000000000 0.1000000000 0.1000000000 0.1000000000 0.1000000000 0.1000000000 0.1000000000 0.1000000000 0.1000000000 0.1000000000 0.1000000000 0.1000000000 0.1000000000 0.1000000000 0.1000000000 0.1000000000 0.1000000000 0.1000000000 0.1000000000 0.1000000000 0.1000000000 0.1000000000 0.1000000000 0.1000000000 0.1000000000 0.1000000000 0.1000000000 0.1000000000 0.1000000000 0.1000000000 0.1000000000 0.1000000000 0.1000000000 0.1000000000 0.1000000000 0.1000000000 0.1000000000 0.1000000000 0.1000000000 0.1000000000 0.1000000000 0.1000000000 0.1000000000 0.1000000000 0.1000000000 0.1000000000 0.1000000000 0.1000000000 0.1000000000 0.1000000000 0.1000000000 0.1000000000 0.1000000000 0.1000000000 0.1000000000 0.1000000000 0.1000000000 0.1000000000 0.1000000000 0.1000000000 0.1000000000 0.1000000000 0.1000000000 0.1000000000 0.1000000000 0.1000000000 0.1000000000 0.1000000000 0.1000000000 0.1000000000 0.1000000000 0.1000000000 0.1000000000 0.1000000000 0.1000000000 0.1000000000 0.1000000000 0.1000000000 0.1000000000 0.1000000000 0.1000000000 0.1000000000 0.1000000000 0.1000000000 0.1000000000 0.1000000000 0.1000000000 0.1000000000 0.1000000000 0.1000000000 0.1000000000 0.1000000000 0.1000000000 0.1000000000 0.1000000000 0.1000000000 0.1000000000 0.1000000000 0.1000000000 0.1000000000 0.1000000000 0.1000000000 0.1000000000 0.1000000000 0.1000000000 0.1000000000 0.1000000000 0.1000000000 0.1000000000 0.1000000000 0.1000000000 0.1000000000 0.1000000000 0.1000000000 0.1000000000 0.1000000000 0.1000000000 0.1000000000 0.1000000000 0.1000000000 0.1000000000 0.1000000000 0.1000000000 0.1000000000 0.1000000000 0.1000000000 0.1000000000 0.1000000000 0.1000000000 0.1000000000 0.1000000000 0.1000000000 0.1000000000 0.1000000000 0.1000000000 0.1000000000 0.1000000000 0.1000000000 0.1000000000 0.1000000000 0.1000000000 0.1000000000 0.1000000000 0.1000000000 0.1000000000 0.1000000000 0.1000000000 0.1000000000 0.1000000000 0.1000000000 0.1000000000 0.1000000000 0.1000000000 0.1000000000 0.1000000000 0.1000000000 0.1000000000 0.1000000000 0.1000000000 0.1000000000 0.1000000000 0.1000000000 0.1000000000 0.1000000000 0.1000000000 0.1000000000 0.1000000000 0.1000000000 0.1000000000 0.1000000000 0.1000000000 0.1000000000 0.1000000000 0.1000000000 0.1000000000 0.1000000000 0.1000000000 0.1000000000 0.1000000000 0.1000000000 0.1000000000 0.1000000000 0.1000000000 0.1000000000 0.1000000000 0.1000000000 0.1000000000 0.1000000000 0.1000000000 0.1000000000 0.1000000000 0.1000000000 0.1000000000 0.1000000000 0.1000000000 0.1000000000 0.1000000000 0.1000000000 0.1000000000 0.1000000000 0.1000000000 0.1000000000 0.1000000000 0.1000000000 0.1000000000 0.1000000000 0.1000000000 0.1000000000 0.1000000000 0.1000000000 0.1000000000 0.1000000000 0.1000000000 0.1000000000 0.1000000000 0.1000000000 0.1000000000 0.1000000000 0.1000000000 0.1000000000 0.1000000000 0.1000000000 0.1000000000 0.1000000000 0.1000000000 0.1000000000 0.1000000000 0.1000000000 0.1000000000 0.1000000000 0.1000000000 0.1000000000 0.1000000000 0.1000000000 0.1000000000 0.1000000000 0.1000000000 0.1000000000 0.1000000000 0.1000000000 0.1000000000 0.1000000000 0.1000000000 0.1000000000 0.1000000000 0.1000000000 0.1000000000 0.1000000000 0.1000000000 0.1000000000 0.1000000000 0.1000000000 0.1000000000 0.1000000000 0.1000000000 0.1000000000 0.1000000000 0.1000000000 0.1000000000 0.1000000000 0.1000000000 0.1000000000 0.1000000000 0.1000000000 0.1000000000 0.1000000000 0.1000000000 0.1000000000 0.1000000000 0.1000000000 0.1000000000 0.1000000000 0.1000000000 0.1000000000 0.1000000000 0.1000000000 0.1000000000 0.1000000000 0.1000000000 0.1000000000 0.1000000000 0.1000000000 0.1000000000 0.1000000000 0.1000000000 0.1000000000 0.1000000000 0.1000000000 0.1000000000 0.1000000000 0.1000000000 0.1000000000 0.1000000000 0.1000000000 0.1000000000 0.1000000000 0.1000000000 0.1000000000 0.1000000000 0.1000000000 0.1000000000 0.1000000000 0.1000000000 0.1000000000 0.1000000000 0.1000000000 0.1000000000 0.1000000000 0.1000000000 0.1000000000 0.1000000000 0.1000000000 0.1000000000 0.1000000000 0.1000000000 0.1000000000 0.1000000000 0.1000000000 0.1000000000 0.1000000000 0.1000000000 0.1000000000 0.1000000000 0.1000000000 0.1000000000 0.1000000000 0.1000000000 0.1000000000 0.1000000000 0.1000000000 0.1000000000 0.1000000000 0.1000000000 0.1000000000 0.1000000000 0.1000000000 0.1000000000 0.1000000000 0.1000000000 0.1000000000 0.1000000000 0.1000000000 0.1000000000 0.1000000000 0.1000000000 0.1000000000 0.1000000000 0.1000000000 0.1000000000 0.1000000000 0.1000000000 0.1000000000 0.1000000000 0.1000000000 0.1000000000 0.1000000000 0.1000000000 0.1000000000 0.1000000000 0.1000000000 0.1000000000 0.1000000000 0.1000000000 0.1000000000 0.1000000000 0.1000000000 0.1000000000 0.1000000000 0.1000000000 0.1000000000 0.10000000