<?xml version="1.0"?>
<VTKFile type="UnstructuredGrid" version="0.1" byte_order="LittleEndian">
  <UnstructuredGrid>
    <FieldData>
      <DataArray type="Float32" Name="TIME"  NumberOfTuples="1" format="ascii"> 2.4500000000 </DataArray>
      <DataArray type="Int32"   Name="STEP"  NumberOfTuples="1" format="ascii"> 612500 </DataArray>
    </FieldData>
    <Piece NumberOfPoints="11600" NumberOfCells="11600">
      <Points>
        <DataArray type="Float32" NumberOfComponents="3" format="ascii">
 -0.4257185396 -0.8071190813 -0.0000038903 -0.2257640055 -0.8028548098 -0.0000037358 -0.0258094682 -0.7985905374 -0.0000035805 0.1741450671 -0.7943262644 -0.0000034206 0.3740996047 -0.7900619912 -0.0000032564 0.5740541409 -0.7857977184 -0.0000030886 0.7740086776 -0.7815334453 -0.0000029175 0.9739632151 -0.7772691722 -0.0000027445 1.1739177556 -0.7730048976 -0.0000025649 1.3738722935 -0.7687406230 -0.0000023934 1.5738268308 -0.7644763487 -0.0000022245 1.7737813685 -0.7602120745 -0.0000020608 1.9737359069 -0.7559478005 -0.0000019043 2.1736904537 -0.7516835245 -0.0000017515 2.3736449921 -0.7474192467 -0.0000016269 2.5735995301 -0.7431549694 -0.0000015138 2.7735540680 -0.7388906918 -0.0000014140 2.9735086064 -0.7346264142 -0.0000013276 3.1734631518 -0.7303621343 -0.0000012548 3.3734176896 -0.7260978529 -0.0000012115 3.5733722260 -0.7218335720 -0.0000011818 3.7733267622 -0.7175692911 -0.0000011659 3.9732812989 -0.7133050106 -0.0000011623 4.1732358357 -0.7090407298 -0.0000011757 4.3731903717 -0.7047764489 -0.0000012043 4.5731449071 -0.7005121683 -0.0000012408 4.7730994421 -0.6962478873 -0.0000012834 4.9730539773 -0.6919836066 -0.0000013303 5.1730085103 -0.6877193264 -0.0000013828 5.3729630443 -0.6834550466 -0.0000014332 5.5729175778 -0.6791907678 -0.0000014816 5.7728721114 -0.6749264893 -0.0000015268 5.9728266456 -0.6706622116 -0.0000015677 6.1727811788 -0.6663979340 -0.0000015965 6.3727357136 -0.6621336566 -0.0000016172 6.5726902480 -0.6578693793 -0.0000016293 6.7726447824 -0.6536051020 -0.0000016311 6.9725993179 -0.6493408250 -0.0000016221 7.1725538526 -0.6450765478 -0.0000015909 7.3725083886 -0.6408122705 -0.0000015450 7.5724629240 -0.6365479933 -0.0000014883 7.7724174594 -0.6322837161 -0.0000014217 7.9723719957 -0.6280194392 -0.0000013469 8.1723265340 -0.6237551619 -0.0000012580 8.3722810705 -0.6194908837 -0.0000011660 8.5722356063 -0.6152266058 -0.0000010716 8.7721901421 -0.6109623274 -0.0000009764 8.9721446787 -0.6066980486 -0.0000008818 9.1720992149 -0.6024337689 -0.0000007886 9.3720537504 -0.5981694885 -0.0000007018 9.5720082847 -0.5939052086 -0.0000006186 9.7719628190 -0.5896409288 -0.0000005394 9.9719173538 -0.5853766490 -0.0000004641 10.1718718876 -0.5811123694 -0.0000003975 10.3718264220 -0.5768480897 -0.0000003341 10.5717809561 -0.5725838105 -0.0000002741 10.7717354899 -0.5683195313 -0.0000002167 10.9716900243 -0.5640552523 -0.0000001607 11.1716445570 -0.5597909737 -0.0000001089 11.3715990913 -0.5555266955 -0.0000000512 11.5715536252 -0.5512624181 0.0000000083 11.7715081593 -0.5469981410 0.0000000700 11.9714626948 -0.5427338644 0.0000001335 12.1714172291 -0.5384695874 0.0000001951 12.3713717657 -0.5342053100 0.0000002624 12.5713263032 -0.5299410319 0.0000003264 12.7712808395 -0.5256767521 0.0000003944 12.9712353765 -0.5214124733 0.0000004619 13.1711899143 -0.5171481929 0.0000005261 13.3711444529 -0.5128839112 0.0000005923 13.5710989896 -0.5086196257 0.0000006575 13.8109427983 -0.4941301142 0.0000000000 14.0109411173 -0.4949499599 0.0000000000 14.2109394362 -0.4957698053 0.0000000000 14.4109377578 -0.4965896502 0.0000000000 14.6109360768 -0.4974094961 0.0000000000 14.8109343970 -0.4982293411 0.0000000000 15.0109327171 -0.4990491868 0.0000000000 15.2109310363 -0.4998690321 0.0000000000 15.4109293573 -0.5006888775 0.0000000000 15.6109276766 -0.5015087230 0.0000000000 15.8109259970 -0.5023285684 0.0000000000 16.0109243171 -0.5031484134 0.0000000000 16.2898951352 -0.3724936730 0.0000000175 16.4898238716 -0.3671550936 0.0000000171 16.6897526066 -0.3618165150 0.0000000168 16.8896813439 -0.3564779361 0.0000000166 17.0896100798 -0.3511393575 0.0000000163 17.2895388156 -0.3458007788 0.0000000161 17.4894675528 -0.3404622004 0.0000000158 17.6893962883 -0.3351236218 0.0000000154 17.8893250253 -0.3297850431 0.0000000151 18.0892537614 -0.3244464645 0.0000000146 18.2891824974 -0.3191078858 0.0000000142 18.4891112350 -0.3137693073 0.0000000137 18.6890399703 -0.3084307290 0.0000000133 18.8889687080 -0.3030921499 0.0000000127 19.0888974442 -0.2977535712 0.0000000122 19.2888261803 -0.2924149924 0.0000000117 19.4887549159 -0.2870764133 0.0000000111 -0.3294342396 -0.6318212405 -0.0000036279 -0.1294797055 -0.6275569688 -0.0000034734 0.0704748311 -0.6232926959 -0.0000033170 0.2704293681 -0.6190284229 -0.0000031562 0.4703839044 -0.6147641500 -0.0000029919 0.6703384408 -0.6104998770 -0.0000028246 0.8702929775 -0.6062356037 -0.0000026550 1.0702475160 -0.6019713302 -0.0000024843 1.2702020549 -0.5977070555 -0.0000023154 1.4701565924 -0.5934427811 -0.0000021505 1.6701111302 -0.5891785069 -0.0000019907 1.8700656685 -0.5849142325 -0.0000018375 2.0700202092 -0.5806499582 -0.0000016935 2.2699747499 -0.5763856807 -0.0000015668 2.4699292883 -0.5721214033 -0.0000014550 2.6698838265 -0.5678571256 -0.0000013563 2.8698383647 -0.5635928478 -0.0000012705 3.0697929048 -0.5593285696 -0.0000011992 3.2697474446 -0.5550642886 -0.0000011498 3.4697019820 -0.5508000073 -0.0000011172 3.6696565188 -0.5465357263 -0.0000010979 3.8696110552 -0.5422714454 -0.0000010910 4.0695655919 -0.5380071647 -0.0000010969 4.2695201285 -0.5337428840 -0.0000011187 4.4694746640 -0.5294786032 -0.0000011504 4.6694291992 -0.5252143223 -0.0000011888 4.8693837340 -0.5209500414 -0.0000012323 5.0693382685 -0.5166857609 -0.0000012797 5.2692928029 -0.5124214808 -0.0000013292 5.4692473368 -0.5081572016 -0.0000013779 5.6692018708 -0.5038929228 -0.0000014244 5.8691564049 -0.4996286445 -0.0000014672 6.0691109392 -0.4953643667 -0.0000015038 6.2690654737 -0.4911000894 -0.0000015303 6.4690200080 -0.4868358121 -0.0000015483 6.6689745427 -0.4825715350 -0.0000015572 6.8689290774 -0.4783072577 -0.0000015551 7.0688836128 -0.4740429805 -0.0000015390 7.2688381483 -0.4697787034 -0.0000015034 7.4687926837 -0.4655144263 -0.0000014547 7.6687472193 -0.4612501492 -0.0000013955 7.8687017551 -0.4569858721 -0.0000013268 8.0686562920 -0.4527215952 -0.0000012487 8.2686108290 -0.4484573172 -0.0000011613 8.4685653649 -0.4441930393 -0.0000010698 8.6685199008 -0.4399287611 -0.0000009765 8.8684744363 -0.4356644825 -0.0000008829 9.0684289722 -0.4314002032 -0.0000007907 9.2683835079 -0.4271359228 -0.0000007025 9.4683380426 -0.4228716428 -0.0000006180 9.6682925772 -0.4186073629 -0.0000005373 9.8682471116 -0.4143430832 -0.0000004605 10.0682016463 -0.4100788034 -0.0000003884 10.2681561808 -0.4058145235 -0.0000003219 10.4681107150 -0.4015502442 -0.0000002589 10.6680652492 -0.3972859651 -0.0000001983 10.8680197831 -0.3930216859 -0.0000001393 11.0679743172 -0.3887574070 -0.0000000810 11.2679288514 -0.3844931288 -0.0000000213 11.4678833856 -0.3802288511 0.0000000410 11.6678379201 -0.3759645740 0.0000001056 11.8677924544 -0.3717002971 0.0000001722 12.0677469899 -0.3674360203 0.0000002400 12.2677015254 -0.3631717437 0.0000003094 12.4676560613 -0.3589074661 0.0000003795 12.6676105979 -0.3546431873 0.0000004497 12.8675651337 -0.3503789085 0.0000005199 13.0675196711 -0.3461146285 0.0000005888 13.2674742076 -0.3418503483 0.0000006562 13.4674287433 -0.3375860653 0.0000007230 13.7116536431 -0.3205165691 0.0000000000 13.9116519640 -0.3213364128 0.0000000000 14.1116502840 -0.3221562580 0.0000000000 14.3116486040 -0.3229761038 0.0000000000 14.5116469239 -0.3237959491 0.0000000000 14.7116452439 -0.3246157947 0.0000000000 14.9116435636 -0.3254356402 0.0000000000 15.1116418834 -0.3262554854 0.0000000000 15.3116402038 -0.3270753313 0.0000000000 15.5116385236 -0.3278951762 0.0000000000 15.7116368438 -0.3287150214 0.0000000000 15.9116351611 -0.3295348690 0.0000000000 16.1853074228 -0.2020195996 0.0000000169 16.3852361575 -0.1966810201 0.0000000165 16.5851648940 -0.1913424407 0.0000000164 16.7850936307 -0.1860038620 0.0000000160 16.9850223669 -0.1806652833 0.0000000157 17.1849511031 -0.1753267047 0.0000000154 17.3848798392 -0.1699881262 0.0000000151 17.5848085759 -0.1646495473 0.0000000149 17.7847373124 -0.1593109688 0.0000000145 17.9846660486 -0.1539723902 0.0000000141 18.1845947849 -0.1486338117 0.0000000136 18.3845235212 -0.1432952335 0.0000000132 18.5844522581 -0.1379566545 0.0000000127 18.7843809950 -0.1326180761 0.0000000122 18.9843097312 -0.1272794973 0.0000000117 19.1842384675 -0.1219409186 0.0000000112 19.3841672036 -0.1166023397 0.0000000106 19.5840959388 -0.1112637609 0.0000000101 -0.4331044756 -0.4607876708 -0.0000035197 -0.2331499409 -0.4565233988 -0.0000033660 -0.0331954042 -0.4522591263 -0.0000032115 0.1667591309 -0.4479948535 -0.0000030541 0.3667136681 -0.4437305804 -0.0000028929 0.5666682043 -0.4394663074 -0.0000027292 0.7666227410 -0.4352020344 -0.0000025634 0.9665772782 -0.4309377612 -0.0000023970 1.1665318162 -0.4266734867 -0.0000022320 1.3664863540 -0.4224092127 -0.0000020712 1.5664408917 -0.4181449383 -0.0000019154 1.7663954294 -0.4138806641 -0.0000017665 1.9663499676 -0.4096163897 -0.0000016264 2.1663045080 -0.4053521134 -0.0000015006 2.3662590465 -0.4010878365 -0.0000013913 2.5662135846 -0.3968235590 -0.0000012945 2.7661681226 -0.3925592812 -0.0000012106 2.9661226605 -0.3882950031 -0.0000011397 3.1660772005 -0.3840307232 -0.0000010867 3.3660317380 -0.3797664423 -0.0000010522 3.5659862750 -0.3755021611 -0.0000010305 3.7659408117 -0.3712378801 -0.0000010208 3.9658953482 -0.3669735993 -0.0000010219 4.1658498850 -0.3627093183 -0.0000010367 4.3658044210 -0.3584450375 -0.0000010634 4.5657589564 -0.3541807568 -0.0000010972 4.7657134914 -0.3499164760 -0.0000011366 4.9656680262 -0.3456521953 -0.0000011800 5.1656225601 -0.3413879150 -0.0000012267 5.3655770949 -0.3371236352 -0.0000012744 5.5655316294 -0.3328593560 -0.0000013212 5.765
[...]
      <PointData Scalars="radius">
        <DataArray type="Float32" Name="radius" format="ascii">
 0.1000000000 0.1000000000 0.1000000000 0.1000000000 0.1000000000 0.1000000000 0.1000000000 0.1000000000 0.1000000000 0.1000000000 0.1000000000 0.1000000000 0.1000000000 0.1000000000 0.1000000000 0.1000000000 0.1000000000 0.1000000000 0.1000000000 0.1000000000 0.1000000000 0.1000000000 0.1000000000 0.1000000000 0.1000000000 0.1000000000 0.1000000000 0.1000000000 0.1000000000 0.1000000000 0.1000000000 0.1000000000 0.1000000000 0.1000000000 0.1000000000 0.1000000000 0.1000000000 0.1000000000 0.1000000000 0.1000000000 0.1000000000 0.1000000000 0.1000000000 0.1000000000 0.1000000000 0.1000000000 0.1000000000 0.1000000000 0.1000000000 0.1000000000 0.1000000000 0.1000000000 0.1000000000 0.1000000000 0.1000000000 0.1000000000 0.1000000000 0.1000000000 0.1000000000 0.1000000000 0.1000000000 0.1000000000 0.1000000000 0.1000000000 0.1000000000 0.1000000000 0.1000000000 0.1000000000 0.1000000000 0.1000000000 0.1000000000 0.1000000000 0.1000000000 0.1000000000 0.1000000000 0.1000000000 0.1000000000 0.1000000000 0.1000000000 0.1000000000 0.1000000000 0.1000000000 0.1000000000 0.1000000000 0.1000000000 0.1000000000 0.1000000000 0.1000000000 0.1000000000 0.1000000000 0.1000000000 0.1000000000 0.1000000000 0.1000000000 0.1000000000 0.1000000000 0.1000000000 0.1000000000 0.1000000000 0.1000000000 0.1000000000 0.1000000000 0.1000000000 0.1000000000 0.1000000000 0.1000000000 0.1000000000 0.1000000000 0.1000000000 0.1000000000 0.1000000000 0.1000000000 0.1000000000 0.1000000000 0.1000000000 0.1000000000 0.1000000000 0.1000000000 0.1000000000 0.1000000000 0.1000000000 0.1000000000 0.1000000000 0.1000000000 0.1000000000 0.1000000000 0.1000000000 0.1000000000 0.1000000000 0.1000000000 0.1000000000 0.1000000000 0.1000000000 0.1000000000 0.1000000000 0.1000000000 0.1000000000 0.1000000000 0.1000000000 0.1000000000 0.1000000000 0.1000000000 0.1000000000 0.1000000000 0.1000000000 0.1000000000 0.1000000000 0.1000000000 0.1000000000 0.1000000000 0.1000000000 0.1000000000 0.1000000000 0.1000000000 0.1000000000 0.1000000000 0.1000000000 0.1000000000 0.1000000000 0.1000000000 0.1000000000 0.1000000000 0.1000000000 0.1000000000 0.1000000000 0.1000000000 0.1000000000 0.1000000000 0.1000000000 0.1000000000 0.1000000000 0.1000000000 0.1000000000 0.1000000000 0.1000000000 0.1000000000 0.1000000000 0.1000000000 0.1000000000 0.1000000000 0.1000000000 0.1000000000 0.1000000000 0.1000000000 0.1000000000 0.1000000000 0.1000000000 0.1000000000 0.1000000000 0.1000000000 0.1000000000 0.1000000000 0.1000000000 0.1000000000 0.1000000000 0.1000000000 0.1000000000 0.1000000000 0.1000000000 0.1000000000 0.1000000000 0.1000000000 0.1000000000 0.1000000000 0.1000000000 0.1000000000 0.1000000000 0.1000000000 0.1000000000 0.1000000000 0.1000000000 0.1000000000 0.1000000000 0.1000000000 0.1000000000 0.1000000000 0.1000000000 0.1000000000 0.1000000000 0.1000000000 0.1000000000 0.1000000000 0.1000000000 0.1000000000 0.1000000000 0.1000000000 0.1000000000 0.1000000000 0.1000000000 0.1000000000 0.1000000000 0.1000000000 0.1000000000 0.1000000000 0.1000000000 0.1000000000 0.1000000000 0.1000000000 0.1000000000 0.1000000000 0.1000000000 0.1000000000 0.1000000000 0.1000000000 0.1000000000 0.1000000000 0.1000000000 0.1000000000 0.1000000000 0.1000000000 0.1000000000 0.1000000000 0.1000000000 0.1000000000 0.1000000000 0.1000000000 0.1000000000 0.1000000000 0.1000000000 0.1000000000 0.1000000000 0.1000000000 0.1000000000 0.1000000000 0.1000000000 0.1000000000 0.1000000000 0.1000000000 0.1000000000 0.1000000000 0.1000000000 0.1000000000 0.1000000000 0.1000000000 0.1000000000 0.1000000000 0.1000000000 0.1000000000 0.1000000000 0.1000000000 0.1000000000 0.1000000000 0.1000000000 0.1000000000 0.1000000000 0.1000000000 0.1000000000 0.1000000000 0.1000000000 0.1000000000 0.1000000000 0.1000000000 0.1000000000 0.1000000000 0.1000000000 0.1000000000 0.1000000000 0.1000000000 0.1000000000 0.1000000000 0.1000000000 0.1000000000 0.1000000000 0.1000000000 0.1000000000 0.1000000000 0.1000000000 0.1000000000 0.1000000000 0.1000000000 0.1000000000 0.1000000000 0.1000000000 0.1000000000 0.1000000000 0.1000000000 0.1000000000 0.1000000000 0.1000000000 0.1000000000 0.1000000000 0.1000000000 0.1000000000 0.1000000000 0.1000000000 0.1000000000 0.1000000000 0.1000000000 0.1000000000 0.1000000000 0.1000000000 0.1000000000 0.1000000000 0.1000000000 0.1000000000 0.1000000000 0.1000000000 0.1000000000 0.1000000000 0.1000000000 0.1000000000 0.1000000000 0.1000000000 0.1000000000 0.1000000000 0.1000000000 0.1000000000 0.1000000000 0.1000000000 0.1000000000 0.1000000000 0.1000000000 0.1000000000 0.1000000000 0.1000000000 0.1000000000 0.1000000000 0.1000000000 0.1000000000 0.1000000000 0.1000000000 0.1000000000 0.1000000000 0.1000000000 0.1000000000 0.1000000000 0.1000000000 0.1000000000 0.1000000000 0.1000000000 0.1000000000 0.1000000000 0.1000000000 0.1000000000 0.1000000000 0.1000000000 0.1000000000 0.1000000000 0.1000000000 0.1000000000 0.1000000000 0.1000000000 0.1000000000 0.1000000000 0.1000000000 0.1000000000 0.1000000000 0.1000000000 0.1000000000 0.1000000000 0.1000000000 0.1000000000 0.1000000000 0.1000000000 0.1000000000 0.1000000000 0.1000000000 0.1000000000 0.1000000000 0.1000000000 0.1000000000 0.1000000000 0.1000000000 0.1000000000 0.1000000000 0.1000000000 0.1000000000 0.1000000000 0.1000000000 0.1000000000 0.1000000000 0.1000000000 0.1000000000 0.1000000000 0.1000000000 0.1000000000 0.1000000000 0.1000000000 0.1000000000 0.1000000000 0.1000000000 0.1000000000 0.1000000000 0.1000000000 0.1000000000 0.1000000000 0.1000000000 0.1000000000 0.1000000000 0.1000000000 0.1000000000 0.1000000000 0.1000000000 0.1000000000 0.1000000000 0.1000000000 0.1000000000 0.1000000000 0.1000000000 0.1000000000 0.1000000000 0.1000000000 0.1000000000 0.1000000000 0.1000000000 0.1000000000 0.1000000000 0.1000000000 0.1000000000 0.1000000000 0.1000000000 0.1000000000 0.1000000000 0.1000000000 0.1000000000 0.1000000000 0.1000000000 0.1000000000 0.1000000000 0.1000000000 0.1000000000 0.1000000000 0.1000000000 0.1000000000 0.1000000000 0.1000000000 0.1000000000 0.1000000000 0.1000000000 0.1000000000 0.1000000000 0.1000000000 0.1000000000 0.1000000000 0.1000000000 0.1000000000 0.1000000000 0.1000000000 0.1000000000 0.1000000000 0.1000000000 0.1000000000 0.1000000000 0.1000000000 0.1000000000 0.1000000000 0.1000000000 0.1000000000 0.1000000000 0.1000000000 0.1000000000 0.1000000000 0.1000000000 0.1000000000 0.1000000000 0.1000000000 0.1000000000 0.1000000000 0.1000000000 0.1000000000 0.1000000000 0.1000000000 0.1000000000 0.1000000000 0.1000000000 0.1000000000 0.1000000000 0.1000000000 0.1000000000 0.1000000000 0.1000000000 0.1000000000 0.1000000000 0.1000000000 0.1000000000 0.1000000000 0.1000000000 0.1000000000 0.1000000000 0.1000000000 0.1000000000 0.1000000000 0.1000000000 0.1000000000 0.1000000000 0.1000000000 0.1000000000 0.1000000000 0.1000000000 0.1000000000 0.1000000000 0.1000000000 0.1000000000 0.1000000000 0.1000000000 0.1000000000 0.1000000000 0.1000000000 0.1000000000 0.1000000000 0.1000000000 0.1000000000 0.1000000000 0.1000000000 0.1000000000 0.1000000000 0.1000000000 0.1000000000 0.1000000000 0.1000000000 0.1000000000 0.1000000000 0.1000000000 0.1000000000 0.1000000000 0.1000000000 0.1000000000 0.1000000000 0.1000000000 0.1000000000 0.1000000000 0.1000000000 0.1000000000 0.1000000000 0.1000000000 0.1000000000 0.1000000000 0.1000000000 0.1000000000 0.1000000000 0.1000000000 0.1000000000 0.1000000000 0.1000000000 0.1000000000 0.1000000000 0.1000000000 0.1000000000 0.1000000000 0.1000000000 0.1000000000 0.1000000000 0.1000000000 0.1000000000 0.1000000000 0.1000000000 0.1000000000 0.1000000000 0.1000000000 0.1000000000 0.1000000000 0.1000000000 0.1000000000 0.1000000000 0.1000000000 0.1000000000 0.1000000000 0.1000000000 0.1000000000 0.1000000000 0.1000000000 0.1000000000 0.1000000000 0.1000000000 0.1000000000 0.1000000000 0.1000000000 0.1000000000 0.1000000000 0.1000000000 0.1000000000 0.1000000000 0.1000000000 0.1000000000 0.1000000000 0.1000000000 0.1000000000 0.1000000000 0.1000000000 0.1000000000 0.1000000000 0.1000000000 0.1000000000 0.1000000000 0.1000000000 0.1000000000 0.1000000000 0.1000000000 0.1000000000 0.1000000000 0.1000000000 0.1000000000 0.1000000000 0.1000000000 0.1000000000 0.1000000000 0.1000000000 0.1000000000 0.1000000000 0.1000000000 0.1000000000 0.1000000000 0.1000000000 0.1000000000 0.1000000000 0.1000000000 0.1000000000 0.1000000000 0.1000000000 0.1000000000 0.1000000000 0.1000000000 0.1000000000 0.1000000000 0.1000000000 0.1000000000 0.1000000000 0.1000000000 0.1000000000 0.1000000000 0.1000000000 0.1000000000 0.1000000000 0.1000000000 0.1000000000 0.1000000000 0.1000000000 0.1000000000 0.1000000000 0.1000000000 0.1000000000 0.1000000000 0.1000000000 0.1000000000 0.1000000000 0.1000000000 0.1000000000 0.1000000000 0.1000000000 0.1000000000 0.1000000000 0.1000000000 0.1000000000 0.1000000000 0.1000000000 0.1000000000 0.1000000000 0.1000000000 0.1000000000 0.1000000000 0.1000000000 0.1000000000 0.1000000000 0.1000000000 0.1000000000 0.1000000000 0.1000000000 0.1000000000 0.1000000000 0.1000000000 0.1000000000 0.1000000000 0.1000000000 0.1000000000 0.1000000000 0.1000000000 0.1000000000 0.1000000000 0.1000000000 0.1000000000 0.1000000000 0.1000000000 0.1000000000 0.1000000000 0.1000000000 0.1000000000 0.1000000000 0.1000000000 0.1000000000 0.1000000000 0.1000000000 0.1000000000 0.1000000000 0.1000000000 0.1000000000 0.1000000000 0.1000000000 0.1000000000 0.1000000000 0.1000000000 0.1000000000 0.1000000000 0.1000000000 0.1000000000 0.1000000000 0.1000000000 0.1000000000 0.1000000000 0.1000000000 0.1000000000 0.1000000000 0.1000000000 0.1000000000 0.1000000000 0.1000000000 0.1000000000 0.1000000000 0.1000000000 0.1000000000 0.1000000000 0.1000000000 0.1000000000 0.1000000000 0.1000000000 0.1000000000 0.1000000000 0.1000000000 0.1000000000 0.1000000000 0.1000000000 0.1000000000 0.1000000000 0.1000000000 0.1000000000 0.1000000000 0.1000000000 0.1000000000 0.1000000000 0.1000000000 0.1000000000 0.1000000000 0.1000000000 0.1000000000 0.1000000000 0.1000000000 0.1000000000 0.1000000000 0.1000000000 0.1000000000 0.1000000000 0.1000000000 0.1000000000 0.1000000000 0.1000000000 0.1000000000 0.1000000000 0.1000000000 0.1000000000 0.1000000000 0.1000000000 0.1000000000 0.1000000000 0.1000000000 0.1000000000 0.1000000000 0.1000000000 0.1000000000 0.1000000000 0.1000000000 0.1000000000 0.1000000000 0.1000000000 0.1000000000 0.1000000000 0.1000000000 0.1000000000 0.1000000000 0.1000000000 0.1000000000 0.1000000000 0.1000000000 0.1000000000 0.1000000000 0.1000000000 0.1000000000 0.1000000000 0.1000000000 0.1000000000 0.1000000000 0.1000000000 0.1000000000 0.1000000000 0.1000000000 0.1000000000 0.1000000000 0.1000000000 0.1000000000 0.1000000000 0.1000000000 0.1000000000 0.1000000000 0.1000000000 0.1000000000 0.1000000000 0.1000000000 0.1000000000 0.1000000000 0.1000000000 0.1000000000 0.1000000000 0.1000000000 0.1000000000 0.1000000000 0.1000000000 0.1000000000 0.1000000000 0.1000000000 0.1000000000 0.1000000000 0.1000000000 0.1000000000 0.1000000000 0.1000000000 0.1000000000 0.1000000000 0.1000000000 0.1000000000 0.1000000000 0.1000000000 0.1000000000 0.1000000000 0.1000000000 0.1000000000 0.1000000000 0.1000000000 0.1000000000 0.1000000000 0.1000000000 0.1000000000 0.1000000000 0.1000000000 0.1000000000 0.1000000000 0.1000000000 0.1000000000 0.1000000000 0.1000000000 0.1000000000 0.1000000000 0.1000000000 0.1000000000 0.1000000000 0.1000000000 0.1000000000 0.1000000000 0.1000000000 0.1000000000 0.1000000000 0.1000000000 0.1000000000 0.1000000000 0.1000000000 0.1000000000 0.1000000000 0.1000000000 0.1000000000 0.1000000000 0.1000000000 0.1000000000 0.1000000000 0.1000000000 0.1000000000 0.1000000000 0.1000000000 0.1000000000 0.1000000000 0.1000000000 0.1000000000 0.1000000000 0.1000000000 0.1000000000 0.1000000000 0.1000000000 0.1000000000 0.1000000000 0.1000000000 0.1000000000 0.1000000000 0.1000000000 0.1000000000 0.1000000000 0.1000000000 0.1000000000 0.1000000000 0.1000000000 0.1000000000 0.1000000000 0.1000000000 0.1000000000 0.1000000000 0.1000000000 0.1000000000 0.1000000000 0.1000000000 0.1000000000 0.1000000000 0.1000000000 0.1000000000 0.1000000000 0.1000000000 0.1000000000 0.1000000000 0.1000000000 0.1000000000 0.1000000000 0.1000000000 0.1000000000 0.1000000000 0.1000000000 0.1000000000 0.1000000000 0.1000000000 0.1000000000 0.1000000000 0.1000000000 0.1000000000 0.1000000000 0.1000000000 0.1000000000 0.1000000000 0.1000000000 0.1000000000 0.1000000000 0.1000000000 0.1000000000 0.1000000000 0.1000000000 0.1000000000 0.1000000000 0.1000000000 0.1000000000 0.1000000000 0.1000000000 0.1000000000 0.1000000000 0.1000000000 0.1000000000 0.1000000000 0.1000000000 0.1000000000 0.1000000000 0.1000000000 0.1000000000 0.1000000000 0.1000000000 0.1000000000 0.1000000000 0.1000000000 0.1000000000 0.1000000000 0.1000000000 0.1000000000 0.1000000000 0.1000000000 0.1000000000 0.1000000000 0.1000000000 0.1000000000 0.1000000000 0.1000000000 0.1000000000 0.1000000000 0.1000000000 0.1000000000 0.1000000000 0.1000000000 0.1000000000 0.1000000000 0.1000000000 0.1000000000 0.1000000000 0.1000000000 0.1000000000 0.1000000000 0.1000000000 0.1000000000 0.1000000000 0.1000000000 0.1000000000 0.1000000000 0.1000000000 0.1000000000 0.1000000000 0.1000000000 0.1000000000 0.1000000000 0.1000000000 0.1000000000 0.1000000000 0.1000000000 0.1000000000 0.1000000000 0.1000000000 0.1000000000 0.1000000000 0.1000000000 0.1000000000 0.1000000000 0.1000000000 0.1000000000 0.1000000000 0.1000000000 0.1000000000 0.1000000000 0.1000000000 0.1000000000 0.1000000000 0.1000000000 0.1000000000 0.1000000000 0.1000000000 0.1000000000 0.1000000000 0.1000000000 0.1000000000 0.1000000000 0.1000000000 0.1000000000 0.1000000000 0.1000000000 0.1000000000 0.1000000000 0.1000000000 0.1000000000 0.1000000000 0.1000000000 0.1000000000 0.1000000000 0.1000000000 0.1000000000 0.1000000000 0.1000000000 0.1000000000 0.1000000000 0.1000000000 0.1000000000 0.1000000000 0.1000000000 0.1000000000 0.1000000000 0.1000000000 0.1000000000 0.1000000000 0.1000000000 0.1000000000 0.1000000000 0.1000000000 0.1000000000 0.1000000000 0.1000000000 0.1000000000 0.1000000000 0.1000000000 0.1000000000 0.1000000000 0.1000000000 0.1000000000 0.1000000000 0.1000000000 0.1000000000 0.1000000000 0.1000000000 0.1000000000 0.1000000000 0.1000000000 0.1000000000 0.1000000000 0.1000000000 0.1000000000 0.1000000000 0.1000000000 0.1000000000 0.1000000000 0.1000000000 0.1000000000 0.1000000000 0.1000000000 0.1000000000 0.1000000000 0.1000000000 0.1000000000 0.1000000000 0.1000000000 0.1000000000 0.1000000000 0.1000000000 0.1000000000 0.1000000000 0.1000000000 0.1000000000 0.1000000000 0.1000000000 0.1000000000 0.1000000000 0.1000000000 0.1000000000 0.1000000000 0.1000000000 0.1000000000 0.1000000000 0.1000000000 0.1000000000 0.1000000000 0.1000000000 0.1000000000 0.1000000000 0.1000000000 0.1000000000 0.1000000000 0.1000000000 0.1000000000 0.1000000000 0.1000000000 0.1000000000 0.1000000000 0.1000000000 0.1000000000 0.1000000000 0.1000000000 0.1000000000 0.1000000000 0.1000000000 0.1000000000 0.1000000000 0.1000000000 0.1000000000 0.1000000000 0.1000000000 0.1000000000 0.1000000000 0.1000000000 0.1000000000 0.1000000000 0.1000000000 0.1000000000 0.1000000000 0.1000000000 0.1000000000 0.1000000000 0.1000000000 0.1000000000 0.1000000000 0.1000000000 0.1000000000 0.1000000000 0.1000000000 0.1000000000 0.1000000000 0.1000000000 0.1000000000 0.1000000000 0.1000000000 0.1000000000 0.1000000000 0.1000000000 0.1000000000 0.1000000000 0.1000000000 0.1000000000 0.1000000000 0.1000000000 0.1000000000 0.1000000000 0.1000000000 0.1000000000 0.1000000000 0.1000000000 0.1000000000 0.1000000000 0.1000000000 0.1000000000 0.1000000000 0.1000000000 0.1000000000 0.1000000000 0.1000000000 0.1000000000 0.1000000000 0.1000000000 0.1000000000 0.1000000000 0.1000000000 0.1000000000 0.1000000000 0.1000000000 0.1000000000 0.1000000000 0.1000000000 0.1000000000 0.1000000000 0.1000000000 0.1000000000 0.1000000000 0.1000000000 0.1000000000 0.1000000000 0.1000000000 0.1000000000 0.1000000000 0.1000000000 0.1000000000 0.1000000000 0.1000000000 0.1000000000 0.1000000000 0.1000000000 0.1000000000 0.1000000000 0.1000000000 0.1000000000 0.1000000000 0.1000000000 0.1000000000 0.1000000000 0.1000000000 0.1000000000 0.1000000000 0.1000000000 0.1000000000 0.1000000000 0.1000000000 0.1000000000 0.1000000000 0.1000000000 0.1000000000 0.1000000000 0.1000000000 0.1000000000 0.1000000000 0.1000000000 0.1000000000 0.1000000000 0.1000000000 0.1000000000 0.1000000000 0.1000000000 0.1000000000 0.1000000000 0.1000000000 0.1000000000 0.1000000000 0.1000000000 0.1000000000 0.1000000000 0.1000000000 0.1000000000 0.1000000000 0.1000000000 0.1000000000 0.1000000000 0.1000000000 0.1000000000 0.1000000000 0.1000000000 0.1000000000 0.1000000000 0.1000000000 0.1000000000 0.1000000000 0.1000000000 0.1000000000 0.1000000000 0.1000000000 0.1000000000 0.1000000000 0.1000000000 0.1000000000 0.1000000000 0.1000000000 0.1000000000 0.1000000000 0.1000000000 0.1000000000 0.1000000000 0.1000000000 0.1000000000 0.1000000000 0.1000000000 0.1000000000 0.1000000000 0.1000000000 0.1000000000 0.1000000000 0.1000000000 0.1000000000 0.1000000000 0.1000000000 0.1000000000 0.1000000000 0.1000000000 0.1000000000 0.1000000000 0.1000000000 0.1000000000 0.1000000000 0.1000000000 0.1000000000 0.1000000000 0.1000000000 0.1000000000 0.1000000000 0.1000000000 0.1000000000 0.1000000000 0.1000000000 0.1000000000 0.1000000000 0.1000000000 0.1000000000 0.1000000000 0.1000000000 0.1000000000 0.1000000000 0.1000000000 0.1000000000 0.1000000000 0.1000000000 0.1000000000 0.1000000000 0.1000000000 0.1000000000 0.1000000000 0.1000000000 0.1000000000 0.1000000000 0.1000000000 0.1000000000 0.1000000000 0.1000000000 0.1000000000 0.1000000000 0.1000000000 0.1000000000 0.1000000000 0.1000000000 0.1000000000 0.1000000000 0.1000000000 0.1000000000 0.1000000000 0.1000000000 0.1000000000 0.1000000000 0.1000000000 0.1000000000 0.1000000000 0.1000000000 0.1000000000 0.1000000000 0.1000000000 0.1000000000 0.1000000000 0.1000000000 0.1000000000 0.1000000000 0.1000000000 0.1000000000 0.1000000000 0.1000000000 0.1000000000 0.1000000000 0.1000000000 0.1000000000 0.1000000000 0.1000000000 0.1000000000 0.1000000000 0.1000000000 0.1000000000 0.1000000000 0.1000000000 0.1000000000 0.1000000000 0.1000000000 0.1000000000 0.1000000000 0.1000000000 0.1000000000 0.1000000000 0.1000000000 0.1000000000 0.1000000000 0.1000000000 0.1000000000 0.1000000000 0.1000000000 0.1000000000 0.1000000000 0.1000000000 0.1000000000 0.1000000000 0.1000000000 0.1000000000 0.1000000000 0.1000000000 0.1000000000 0.1000000000 0.1000000000 0.1000000000 0.1000000000 0.1000000000 0.1000000000 0.1000000000 0.1000000000 0.1000000000 0.1000000000 0.1000000000 0.1000000000 0.1000000000 0.1000000000 0.1000000000 0.1000000000 0.1000000000 0.1000000000 0.1000000000 0.1000000000 0.1000000000 0.1000000000 0.1000000000 0.1000000000 0.1000000000 0.1000000000 0.1000000000 0.1000000000 0.1000000000 0.1000000000 0.1000000000 0.1000000000 0.1000000000 0.1000000000 0.1000000000 0.1000000000 0.1000000000 0.1000000000 0.1000000000 0.1000000000 0.1000000000 0.1000000000 0.1000000000 0.1000000000 0.1000000000 0.1000000000 0.1000000000 0.1000000000 0.1000000000 0.1000000000 0.1000000000 0.1000000000 0.1000000000 0.1000000000 0.1000000000 0.1000000000 0.1000000000 0.1000000000 0.1000000000 0.1000000000 0.1000000000 0.1000000000 0.1000000000 0.1000000000 0.1000000000 0.1000000000 0.1000000000 0.1000000000 0.1000000000 0.1000000000 0.1000000000 0.1000000000 0.1000000000 0.1000000000 0.1000000000 0.1000000000 0.1000000000 0.1000000000 0.1000000000 0.1000000000 0.1000000000 0.1000000000 0.1000000000 0.1000000000 0.1000000000 0.1000000000 0.1000000000 0.1000000000 0.1000000000 0.1000000000 0.1000000000 0.1000000000 0.1000000000 0.1000000000 0.10000000