<?xml version="1.0"?>
<VTKFile type="UnstructuredGrid" version="0.1" byte_order="LittleEndian">
  <UnstructuredGrid>
    <FieldData>
      <DataArray type="Float32" Name="TIME"  NumberOfTuples="1" format="ascii"> 1.3500000000 </DataArray>
      <DataArray type="Int32"   Name="STEP"  NumberOfTuples="1" format="ascii"> 337500 </DataArray>
    </FieldData>
    <Piece NumberOfPoints="11600" NumberOfCells="11600">
      <Points>
        <DataArray type="Float32" NumberOfComponents="3" format="ascii">
 -0.2164828615 -0.4759125712 0.0000005174 -0.0165007803 -0.4732357752 0.0000004472 0.1834813024 -0.4705589847 0.0000003664 0.3834633810 -0.4678821994 0.0000002245 0.5834454658 -0.4652054174 0.0000001106 0.7834275508 -0.4625286388 0.0000000131 0.9834096368 -0.4598518608 -0.0000000689 1.1833917256 -0.4571750844 -0.0000001443 1.3833738180 -0.4544983098 -0.0000002371 1.5833559114 -0.4518215336 -0.0000003034 1.7833380049 -0.4491447580 -0.0000003470 1.9833200981 -0.4464679845 -0.0000003567 2.1833021912 -0.4437912103 -0.0000003414 2.3832842934 -0.4411144320 -0.0000003256 2.5832663831 -0.4384376495 -0.0000003416 2.7832484701 -0.4357608655 -0.0000003463 2.9832305551 -0.4330840785 -0.0000003236 3.1832126388 -0.4304072907 -0.0000002844 3.3831947167 -0.4277305044 -0.0000002430 3.5831767989 -0.4250537222 -0.0000002598 3.7831588812 -0.4223769424 -0.0000002798 3.9831409664 -0.4197001596 -0.0000002822 4.1831230550 -0.4170233743 -0.0000002598 4.3831051449 -0.4143465909 -0.0000002010 4.5830872348 -0.4116698104 -0.0000001547 4.7830693254 -0.4089930322 -0.0000001218 4.9830514164 -0.4063162520 -0.0000001093 5.1830335078 -0.4036394728 -0.0000001113 5.3830156131 -0.4009626905 -0.0000001072 5.5829977108 -0.3982859137 -0.0000000898 5.7829798113 -0.3956091393 -0.0000000478 5.9829619127 -0.3929323664 0.0000000157 6.1829440126 -0.3902555985 0.0000000793 6.3829261594 -0.3875788285 0.0000001146 6.5829082587 -0.3849020497 0.0000001042 6.7828903615 -0.3822252710 0.0000000889 6.9828724656 -0.3795484880 0.0000000936 7.1828545674 -0.3768717042 0.0000001169 7.3828367066 -0.3741949170 0.0000001258 7.5828188051 -0.3715181273 0.0000001017 7.7828009047 -0.3688413421 0.0000000797 7.9827830025 -0.3661645575 0.0000000705 8.1827650994 -0.3634877758 0.0000000698 8.3827472323 -0.3608109855 0.0000000838 8.5827293261 -0.3581341798 0.0000001094 8.7827114177 -0.3554573752 0.0000001488 8.9826935088 -0.3527805755 0.0000001845 9.1826756013 -0.3501037818 0.0000001966 9.3826577279 -0.3474269850 0.0000001424 9.5826398253 -0.3447501804 0.0000000843 9.7826219235 -0.3420733734 0.0000000292 9.9826040211 -0.3393965620 -0.0000000018 10.1825861154 -0.3367197502 -0.0000000042 10.3825682051 -0.3340429443 0.0000000410 10.5825502941 -0.3313661476 0.0000000541 10.7825323867 -0.3286893574 0.0000000526 10.9825144815 -0.3260125640 0.0000000298 11.1824965767 -0.3233357714 -0.0000000175 11.3824787115 -0.3206589725 -0.0000001235 11.5824608086 -0.3179821650 -0.0000001986 11.7824429076 -0.3153053587 -0.0000002562 11.9824250066 -0.3126285496 -0.0000002855 12.1824071042 -0.3099517420 -0.0000002898 12.3823892440 -0.3072749286 -0.0000002839 12.5823713378 -0.3045980946 -0.0000002882 12.7823534454 -0.3019212603 -0.0000003237 12.9823355380 -0.2992444178 -0.0000003506 13.1823176310 -0.2965675741 -0.0000003845 13.3822997388 -0.2938907249 -0.0000004409 13.5822818317 -0.2912138686 -0.0000005085 13.7822639419 -0.2885369945 -0.0000005732 14.0000519138 -0.2819202250 0.0000000000 14.2000514361 -0.2823570952 0.0000000000 14.4000509582 -0.2827939651 0.0000000000 14.6000504830 -0.2832308345 0.0000000000 14.8000500054 -0.2836677048 0.0000000000 15.0000495288 -0.2841045743 0.0000000000 15.2000490521 -0.2845414445 0.0000000000 15.4000485746 -0.2849783142 0.0000000000 15.6000480989 -0.2854151840 0.0000000000 15.8000476214 -0.2858520540 0.0000000000 16.0000471451 -0.2862889238 -0.0000000000 16.2000466684 -0.2867257932 -0.0000000000 16.4441240053 -0.2129564088 0.0000000161 16.6441010556 -0.2099267397 0.0000000160 16.8440781031 -0.2068970704 0.0000000158 17.0440551527 -0.2038674006 0.0000000156 17.2440322009 -0.2008377315 0.0000000154 17.4440092489 -0.1978080631 0.0000000152 17.6439862980 -0.1947783953 0.0000000149 17.8439633436 -0.1917487271 0.0000000147 18.0439403926 -0.1887190595 0.0000000144 18.2439174411 -0.1856893915 0.0000000141 18.4438944897 -0.1826597226 0.0000000138 18.6438715395 -0.1796300532 0.0000000135 18.8438485857 -0.1766003838 0.0000000132 19.0438256356 -0.1735707143 0.0000000129 19.2438026849 -0.1705410458 0.0000000126 19.4437797346 -0.1675113778 0.0000000123 19.6437567845 -0.1644817103 0.0000000121 -0.1188099944 -0.3013846061 0.0000003703 0.0811720893 -0.2987078144 0.0000003179 0.2811541747 -0.2960310264 0.0000002455 0.4811362608 -0.2933542429 0.0000001516 0.6811183469 -0.2906774626 0.0000000622 0.8811004338 -0.2880006840 -0.0000000141 1.0810825220 -0.2853239068 -0.0000000809 1.2810646136 -0.2826471316 -0.0000001476 1.4810467074 -0.2799703579 -0.0000002106 1.6810288014 -0.2772935826 -0.0000002572 1.8810108956 -0.2746168078 -0.0000002774 2.0809929890 -0.2719400332 -0.0000002726 2.2809750824 -0.2692632569 -0.0000002592 2.4809571744 -0.2665864760 -0.0000002574 2.6809392618 -0.2639096919 -0.0000002561 2.8809213469 -0.2612329059 -0.0000002376 3.0809034307 -0.2585561180 -0.0000002071 3.2808855137 -0.2558793306 -0.0000001846 3.4808675962 -0.2532025464 -0.0000001914 3.6808496790 -0.2505257651 -0.0000002109 3.8808317628 -0.2478489843 -0.0000002213 4.0808138488 -0.2451722008 -0.0000002135 4.2807959387 -0.2424954171 -0.0000001838 4.4807780297 -0.2398186351 -0.0000001371 4.6807601200 -0.2371418552 -0.0000000933 4.8807422104 -0.2344650763 -0.0000000666 5.0807243040 -0.2317882967 -0.0000000599 5.2807064034 -0.2291115168 -0.0000000626 5.4806885076 -0.2264347397 -0.0000000589 5.6806706094 -0.2237579654 -0.0000000399 5.8806527130 -0.2210811932 -0.0000000015 6.0806348186 -0.2184044228 0.0000000480 6.2806169322 -0.2157276543 0.0000000915 6.4805990446 -0.2130508770 0.0000001082 6.6805811487 -0.2103740988 0.0000001083 6.8805632524 -0.2076973184 0.0000001125 7.0805453580 -0.2050205343 0.0000001304 7.2805274706 -0.2023437504 0.0000001448 7.4805095825 -0.1996669607 0.0000001292 7.6804916866 -0.1969901730 0.0000000979 7.8804737882 -0.1943133875 0.0000000707 8.0804558895 -0.1916366032 0.0000000533 8.2804379937 -0.1889598187 0.0000000464 8.4804200963 -0.1862830184 0.0000000596 8.6804021921 -0.1836062139 0.0000000952 8.8803842878 -0.1809294114 0.0000001414 9.0803663849 -0.1782526142 0.0000001730 9.2803484885 -0.1755758205 0.0000001696 9.4803305923 -0.1728990184 0.0000001319 9.6803126906 -0.1702222135 0.0000000880 9.8802947878 -0.1675454039 0.0000000541 10.0802768840 -0.1648685921 0.0000000410 10.2802589803 -0.1621917826 0.0000000496 10.4802410752 -0.1595149814 0.0000000649 10.6802231686 -0.1568381877 0.0000000695 10.8802052632 -0.1541613965 0.0000000603 11.0801873607 -0.1514846033 0.0000000341 11.2801694661 -0.1488078102 -0.0000000150 11.4801515723 -0.1461310046 -0.0000000792 11.6801336728 -0.1434541985 -0.0000001375 11.8801157724 -0.1407773916 -0.0000001779 12.0800978726 -0.1381005825 -0.0000001947 12.2800799777 -0.1354237739 -0.0000001928 12.4800620810 -0.1327469478 -0.0000001868 12.6800441795 -0.1300701149 -0.0000001925 12.8800262762 -0.1273932768 -0.0000002120 13.0800083695 -0.1247164351 -0.0000002404 13.2799904657 -0.1220395894 -0.0000002835 13.4799725600 -0.1193627362 -0.0000003467 13.6799546497 -0.1166858758 -0.0000004151 13.9004304905 -0.1084971256 0.0000000000 14.1004300147 -0.1089339938 0.0000000000 14.3004295379 -0.1093708635 0.0000000000 14.5004290611 -0.1098077338 0.0000000000 14.7004285843 -0.1102446036 0.0000000000 14.9004281075 -0.1106814736 0.0000000000 15.1004276305 -0.1111183436 0.0000000000 15.3004271536 -0.1115552132 0.0000000000 15.5004266771 -0.1119920836 0.0000000000 15.7004262002 -0.1124289529 -0.0000000000 15.9004257237 -0.1128658225 -0.0000000000 16.1004252442 -0.1133026946 -0.0000000000 16.3415117106 -0.0412860377 0.0000000155 16.5414887596 -0.0382563687 0.0000000153 16.7414658094 -0.0352266990 0.0000000152 16.9414428583 -0.0321970292 0.0000000150 17.1414199069 -0.0291673597 0.0000000148 17.3413969554 -0.0261376909 0.0000000146 17.5413740036 -0.0231080229 0.0000000144 17.7413510517 -0.0200783545 0.0000000142 17.9413280997 -0.0170486866 0.0000000139 18.1413051477 -0.0140190189 0.0000000136 18.3412821958 -0.0109893506 0.0000000133 18.5412592440 -0.0079596817 0.0000000130 18.7412362926 -0.0049300118 0.0000000127 18.9412133415 -0.0019003427 0.0000000125 19.1411903908 0.0011293260 0.0000000122 19.3411674408 0.0041589940 0.0000000119 19.5411444912 0.0071886615 0.0000000116 19.7411215412 0.0102183284 0.0000000114 -0.2211192080 -0.1295334348 0.0000002780 -0.0211371233 -0.1268566431 0.0000002493 0.1788449629 -0.1241798553 0.0000002106 0.3788270487 -0.1215030692 0.0000001531 0.5788091376 -0.1188262864 0.0000000873 0.7787912257 -0.1161495066 0.0000000256 0.9787733146 -0.1134727287 -0.0000000275 1.1787554049 -0.1107959525 -0.0000000756 1.3787375018 -0.1081191802 -0.0000001254 1.5787195955 -0.1054424062 -0.0000001682 1.7787016899 -0.1027656313 -0.0000001951 1.9786837832 -0.1000888561 -0.0000002017 2.1786658750 -0.0974120794 -0.0000001967 2.3786479654 -0.0947353005 -0.0000001920 2.5786300528 -0.0920585177 -0.0000001852 2.7786121383 -0.0893817321 -0.0000001655 2.9785942230 -0.0867049455 -0.0000001357 3.1785763078 -0.0840281582 -0.0000001131 3.3785583912 -0.0813513726 -0.0000001176 3.5785404758 -0.0786745890 -0.0000001358 3.7785225602 -0.0759978076 -0.0000001497 3.9785046454 -0.0733210254 -0.0000001523 4.1784867331 -0.0706442426 -0.0000001419 4.3784688240 -0.0679674587 -0.0000001114 4.5784509151 -0.0652906782 -0.0000000684 4.7784330073 -0.0626138993 -0.0000000328 4.9784151008 -0.0599371215 -0.0000000162 5.1783971963 -0.0572603443 -0.0000000139 5.3783793092 -0.0545835652 -0.0000000154 5.5783614100 -0.0519067918 -0.0000000081 5.7783435129 -0.0492300197 0.0000000090 5.9783256166 -0.0465532493 0.0000000352 6.178307718
[...]
      <PointData Scalars="radius">
        <DataArray type="Float32" Name="radius" format="ascii">
 0.1000000000 0.1000000000 0.1000000000 0.1000000000 0.1000000000 0.1000000000 0.1000000000 0.1000000000 0.1000000000 0.1000000000 0.1000000000 0.1000000000 0.1000000000 0.1000000000 0.1000000000 0.1000000000 0.1000000000 0.1000000000 0.1000000000 0.1000000000 0.1000000000 0.1000000000 0.1000000000 0.1000000000 0.1000000000 0.1000000000 0.1000000000 0.1000000000 0.1000000000 0.1000000000 0.1000000000 0.1000000000 0.1000000000 0.1000000000 0.1000000000 0.1000000000 0.1000000000 0.1000000000 0.1000000000 0.1000000000 0.1000000000 0.1000000000 0.1000000000 0.1000000000 0.1000000000 0.1000000000 0.1000000000 0.1000000000 0.1000000000 0.1000000000 0.1000000000 0.1000000000 0.1000000000 0.1000000000 0.1000000000 0.1000000000 0.1000000000 0.1000000000 0.1000000000 0.1000000000 0.1000000000 0.1000000000 0.1000000000 0.1000000000 0.1000000000 0.1000000000 0.1000000000 0.1000000000 0.1000000000 0.1000000000 0.1000000000 0.1000000000 0.1000000000 0.1000000000 0.1000000000 0.1000000000 0.1000000000 0.1000000000 0.1000000000 0.1000000000 0.1000000000 0.1000000000 0.1000000000 0.1000000000 0.1000000000 0.1000000000 0.1000000000 0.1000000000 0.1000000000 0.1000000000 0.1000000000 0.1000000000 0.1000000000 0.1000000000 0.1000000000 0.1000000000 0.1000000000 0.1000000000 0.1000000000 0.1000000000 0.1000000000 0.1000000000 0.1000000000 0.1000000000 0.1000000000 0.1000000000 0.1000000000 0.1000000000 0.1000000000 0.1000000000 0.1000000000 0.1000000000 0.1000000000 0.1000000000 0.1000000000 0.1000000000 0.1000000000 0.1000000000 0.1000000000 0.1000000000 0.1000000000 0.1000000000 0.1000000000 0.1000000000 0.1000000000 0.1000000000 0.1000000000 0.1000000000 0.1000000000 0.1000000000 0.1000000000 0.1000000000 0.1000000000 0.1000000000 0.1000000000 0.1000000000 0.1000000000 0.1000000000 0.1000000000 0.1000000000 0.1000000000 0.1000000000 0.1000000000 0.1000000000 0.1000000000 0.1000000000 0.1000000000 0.1000000000 0.1000000000 0.1000000000 0.1000000000 0.1000000000 0.1000000000 0.1000000000 0.1000000000 0.1000000000 0.1000000000 0.1000000000 0.1000000000 0.1000000000 0.1000000000 0.1000000000 0.1000000000 0.1000000000 0.1000000000 0.1000000000 0.1000000000 0.1000000000 0.1000000000 0.1000000000 0.1000000000 0.1000000000 0.1000000000 0.1000000000 0.1000000000 0.1000000000 0.1000000000 0.1000000000 0.1000000000 0.1000000000 0.1000000000 0.1000000000 0.1000000000 0.1000000000 0.1000000000 0.1000000000 0.1000000000 0.1000000000 0.1000000000 0.1000000000 0.1000000000 0.1000000000 0.1000000000 0.1000000000 0.1000000000 0.1000000000 0.1000000000 0.1000000000 0.1000000000 0.1000000000 0.1000000000 0.1000000000 0.1000000000 0.1000000000 0.1000000000 0.1000000000 0.1000000000 0.1000000000 0.1000000000 0.1000000000 0.1000000000 0.1000000000 0.1000000000 0.1000000000 0.1000000000 0.1000000000 0.1000000000 0.1000000000 0.1000000000 0.1000000000 0.1000000000 0.1000000000 0.1000000000 0.1000000000 0.1000000000 0.1000000000 0.1000000000 0.1000000000 0.1000000000 0.1000000000 0.1000000000 0.1000000000 0.1000000000 0.1000000000 0.1000000000 0.1000000000 0.1000000000 0.1000000000 0.1000000000 0.1000000000 0.1000000000 0.1000000000 0.1000000000 0.1000000000 0.1000000000 0.1000000000 0.1000000000 0.1000000000 0.1000000000 0.1000000000 0.1000000000 0.1000000000 0.1000000000 0.1000000000 0.1000000000 0.1000000000 0.1000000000 0.1000000000 0.1000000000 0.1000000000 0.1000000000 0.1000000000 0.1000000000 0.1000000000 0.1000000000 0.1000000000 0.1000000000 0.1000000000 0.1000000000 0.1000000000 0.1000000000 0.1000000000 0.1000000000 0.1000000000 0.1000000000 0.1000000000 0.1000000000 0.1000000000 0.1000000000 0.1000000000 0.1000000000 0.1000000000 0.1000000000 0.1000000000 0.1000000000 0.1000000000 0.1000000000 0.1000000000 0.1000000000 0.1000000000 0.1000000000 0.1000000000 0.1000000000 0.1000000000 0.1000000000 0.1000000000 0.1000000000 0.1000000000 0.1000000000 0.1000000000 0.1000000000 0.1000000000 0.1000000000 0.1000000000 0.1000000000 0.1000000000 0.1000000000 0.1000000000 0.1000000000 0.1000000000 0.1000000000 0.1000000000 0.1000000000 0.1000000000 0.1000000000 0.1000000000 0.1000000000 0.1000000000 0.1000000000 0.1000000000 0.1000000000 0.1000000000 0.1000000000 0.1000000000 0.1000000000 0.1000000000 0.1000000000 0.1000000000 0.1000000000 0.1000000000 0.1000000000 0.1000000000 0.1000000000 0.1000000000 0.1000000000 0.1000000000 0.1000000000 0.1000000000 0.1000000000 0.1000000000 0.1000000000 0.1000000000 0.1000000000 0.1000000000 0.1000000000 0.1000000000 0.1000000000 0.1000000000 0.1000000000 0.1000000000 0.1000000000 0.1000000000 0.1000000000 0.1000000000 0.1000000000 0.1000000000 0.1000000000 0.1000000000 0.1000000000 0.1000000000 0.1000000000 0.1000000000 0.1000000000 0.1000000000 0.1000000000 0.1000000000 0.1000000000 0.1000000000 0.1000000000 0.1000000000 0.1000000000 0.1000000000 0.1000000000 0.1000000000 0.1000000000 0.1000000000 0.1000000000 0.1000000000 0.1000000000 0.1000000000 0.1000000000 0.1000000000 0.1000000000 0.1000000000 0.1000000000 0.1000000000 0.1000000000 0.1000000000 0.1000000000 0.1000000000 0.1000000000 0.1000000000 0.1000000000 0.1000000000 0.1000000000 0.1000000000 0.1000000000 0.1000000000 0.1000000000 0.1000000000 0.1000000000 0.1000000000 0.1000000000 0.1000000000 0.1000000000 0.1000000000 0.1000000000 0.1000000000 0.1000000000 0.1000000000 0.1000000000 0.1000000000 0.1000000000 0.1000000000 0.1000000000 0.1000000000 0.1000000000 0.1000000000 0.1000000000 0.1000000000 0.1000000000 0.1000000000 0.1000000000 0.1000000000 0.1000000000 0.1000000000 0.1000000000 0.1000000000 0.1000000000 0.1000000000 0.1000000000 0.1000000000 0.1000000000 0.1000000000 0.1000000000 0.1000000000 0.1000000000 0.1000000000 0.1000000000 0.1000000000 0.1000000000 0.1000000000 0.1000000000 0.1000000000 0.1000000000 0.1000000000 0.1000000000 0.1000000000 0.1000000000 0.1000000000 0.1000000000 0.1000000000 0.1000000000 0.1000000000 0.1000000000 0.1000000000 0.1000000000 0.1000000000 0.1000000000 0.1000000000 0.1000000000 0.1000000000 0.1000000000 0.1000000000 0.1000000000 0.1000000000 0.1000000000 0.1000000000 0.1000000000 0.1000000000 0.1000000000 0.1000000000 0.1000000000 0.1000000000 0.1000000000 0.1000000000 0.1000000000 0.1000000000 0.1000000000 0.1000000000 0.1000000000 0.1000000000 0.1000000000 0.1000000000 0.1000000000 0.1000000000 0.1000000000 0.1000000000 0.1000000000 0.1000000000 0.1000000000 0.1000000000 0.1000000000 0.1000000000 0.1000000000 0.1000000000 0.1000000000 0.1000000000 0.1000000000 0.1000000000 0.1000000000 0.1000000000 0.1000000000 0.1000000000 0.1000000000 0.1000000000 0.1000000000 0.1000000000 0.1000000000 0.1000000000 0.1000000000 0.1000000000 0.1000000000 0.1000000000 0.1000000000 0.1000000000 0.1000000000 0.1000000000 0.1000000000 0.1000000000 0.1000000000 0.1000000000 0.1000000000 0.1000000000 0.1000000000 0.1000000000 0.1000000000 0.1000000000 0.1000000000 0.1000000000 0.1000000000 0.1000000000 0.1000000000 0.1000000000 0.1000000000 0.1000000000 0.1000000000 0.1000000000 0.1000000000 0.1000000000 0.1000000000 0.1000000000 0.1000000000 0.1000000000 0.1000000000 0.1000000000 0.1000000000 0.1000000000 0.1000000000 0.1000000000 0.1000000000 0.1000000000 0.1000000000 0.1000000000 0.1000000000 0.1000000000 0.1000000000 0.1000000000 0.1000000000 0.1000000000 0.1000000000 0.1000000000 0.1000000000 0.1000000000 0.1000000000 0.1000000000 0.1000000000 0.1000000000 0.1000000000 0.1000000000 0.1000000000 0.1000000000 0.1000000000 0.1000000000 0.1000000000 0.1000000000 0.1000000000 0.1000000000 0.1000000000 0.1000000000 0.1000000000 0.1000000000 0.1000000000 0.1000000000 0.1000000000 0.1000000000 0.1000000000 0.1000000000 0.1000000000 0.1000000000 0.1000000000 0.1000000000 0.1000000000 0.1000000000 0.1000000000 0.1000000000 0.1000000000 0.1000000000 0.1000000000 0.1000000000 0.1000000000 0.1000000000 0.1000000000 0.1000000000 0.1000000000 0.1000000000 0.1000000000 0.1000000000 0.1000000000 0.1000000000 0.1000000000 0.1000000000 0.1000000000 0.1000000000 0.1000000000 0.1000000000 0.1000000000 0.1000000000 0.1000000000 0.1000000000 0.1000000000 0.1000000000 0.1000000000 0.1000000000 0.1000000000 0.1000000000 0.1000000000 0.1000000000 0.1000000000 0.1000000000 0.1000000000 0.1000000000 0.1000000000 0.1000000000 0.1000000000 0.1000000000 0.1000000000 0.1000000000 0.1000000000 0.1000000000 0.1000000000 0.1000000000 0.1000000000 0.1000000000 0.1000000000 0.1000000000 0.1000000000 0.1000000000 0.1000000000 0.1000000000 0.1000000000 0.1000000000 0.1000000000 0.1000000000 0.1000000000 0.1000000000 0.1000000000 0.1000000000 0.1000000000 0.1000000000 0.1000000000 0.1000000000 0.1000000000 0.1000000000 0.1000000000 0.1000000000 0.1000000000 0.1000000000 0.1000000000 0.1000000000 0.1000000000 0.1000000000 0.1000000000 0.1000000000 0.1000000000 0.1000000000 0.1000000000 0.1000000000 0.1000000000 0.1000000000 0.1000000000 0.1000000000 0.1000000000 0.1000000000 0.1000000000 0.1000000000 0.1000000000 0.1000000000 0.1000000000 0.1000000000 0.1000000000 0.1000000000 0.1000000000 0.1000000000 0.1000000000 0.1000000000 0.1000000000 0.1000000000 0.1000000000 0.1000000000 0.1000000000 0.1000000000 0.1000000000 0.1000000000 0.1000000000 0.1000000000 0.1000000000 0.1000000000 0.1000000000 0.1000000000 0.1000000000 0.1000000000 0.1000000000 0.1000000000 0.1000000000 0.1000000000 0.1000000000 0.1000000000 0.1000000000 0.1000000000 0.1000000000 0.1000000000 0.1000000000 0.1000000000 0.1000000000 0.1000000000 0.1000000000 0.1000000000 0.1000000000 0.1000000000 0.1000000000 0.1000000000 0.1000000000 0.1000000000 0.1000000000 0.1000000000 0.1000000000 0.1000000000 0.1000000000 0.1000000000 0.1000000000 0.1000000000 0.1000000000 0.1000000000 0.1000000000 0.1000000000 0.1000000000 0.1000000000 0.1000000000 0.1000000000 0.1000000000 0.1000000000 0.1000000000 0.1000000000 0.1000000000 0.1000000000 0.1000000000 0.1000000000 0.1000000000 0.1000000000 0.1000000000 0.1000000000 0.1000000000 0.1000000000 0.1000000000 0.1000000000 0.1000000000 0.1000000000 0.1000000000 0.1000000000 0.1000000000 0.1000000000 0.1000000000 0.1000000000 0.1000000000 0.1000000000 0.1000000000 0.1000000000 0.1000000000 0.1000000000 0.1000000000 0.1000000000 0.1000000000 0.1000000000 0.1000000000 0.1000000000 0.1000000000 0.1000000000 0.1000000000 0.1000000000 0.1000000000 0.1000000000 0.1000000000 0.1000000000 0.1000000000 0.1000000000 0.1000000000 0.1000000000 0.1000000000 0.1000000000 0.1000000000 0.1000000000 0.1000000000 0.1000000000 0.1000000000 0.1000000000 0.1000000000 0.1000000000 0.1000000000 0.1000000000 0.1000000000 0.1000000000 0.1000000000 0.1000000000 0.1000000000 0.1000000000 0.1000000000 0.1000000000 0.1000000000 0.1000000000 0.1000000000 0.1000000000 0.1000000000 0.1000000000 0.1000000000 0.1000000000 0.1000000000 0.1000000000 0.1000000000 0.1000000000 0.1000000000 0.1000000000 0.1000000000 0.1000000000 0.1000000000 0.1000000000 0.1000000000 0.1000000000 0.1000000000 0.1000000000 0.1000000000 0.1000000000 0.1000000000 0.1000000000 0.1000000000 0.1000000000 0.1000000000 0.1000000000 0.1000000000 0.1000000000 0.1000000000 0.1000000000 0.1000000000 0.1000000000 0.1000000000 0.1000000000 0.1000000000 0.1000000000 0.1000000000 0.1000000000 0.1000000000 0.1000000000 0.1000000000 0.1000000000 0.1000000000 0.1000000000 0.1000000000 0.1000000000 0.1000000000 0.1000000000 0.1000000000 0.1000000000 0.1000000000 0.1000000000 0.1000000000 0.1000000000 0.1000000000 0.1000000000 0.1000000000 0.1000000000 0.1000000000 0.1000000000 0.1000000000 0.1000000000 0.1000000000 0.1000000000 0.1000000000 0.1000000000 0.1000000000 0.1000000000 0.1000000000 0.1000000000 0.1000000000 0.1000000000 0.1000000000 0.1000000000 0.1000000000 0.1000000000 0.1000000000 0.1000000000 0.1000000000 0.1000000000 0.1000000000 0.1000000000 0.1000000000 0.1000000000 0.1000000000 0.1000000000 0.1000000000 0.1000000000 0.1000000000 0.1000000000 0.1000000000 0.1000000000 0.1000000000 0.1000000000 0.1000000000 0.1000000000 0.1000000000 0.1000000000 0.1000000000 0.1000000000 0.1000000000 0.1000000000 0.1000000000 0.1000000000 0.1000000000 0.1000000000 0.1000000000 0.1000000000 0.1000000000 0.1000000000 0.1000000000 0.1000000000 0.1000000000 0.1000000000 0.1000000000 0.1000000000 0.1000000000 0.1000000000 0.1000000000 0.1000000000 0.1000000000 0.1000000000 0.1000000000 0.1000000000 0.1000000000 0.1000000000 0.1000000000 0.1000000000 0.1000000000 0.1000000000 0.1000000000 0.1000000000 0.1000000000 0.1000000000 0.1000000000 0.1000000000 0.1000000000 0.1000000000 0.1000000000 0.1000000000 0.1000000000 0.1000000000 0.1000000000 0.1000000000 0.1000000000 0.1000000000 0.1000000000 0.1000000000 0.1000000000 0.1000000000 0.1000000000 0.1000000000 0.1000000000 0.1000000000 0.1000000000 0.1000000000 0.1000000000 0.1000000000 0.1000000000 0.1000000000 0.1000000000 0.1000000000 0.1000000000 0.1000000000 0.1000000000 0.1000000000 0.1000000000 0.1000000000 0.1000000000 0.1000000000 0.1000000000 0.1000000000 0.1000000000 0.1000000000 0.1000000000 0.1000000000 0.1000000000 0.1000000000 0.1000000000 0.1000000000 0.1000000000 0.1000000000 0.1000000000 0.1000000000 0.1000000000 0.1000000000 0.1000000000 0.1000000000 0.1000000000 0.1000000000 0.1000000000 0.1000000000 0.1000000000 0.1000000000 0.1000000000 0.1000000000 0.1000000000 0.1000000000 0.1000000000 0.1000000000 0.1000000000 0.1000000000 0.1000000000 0.1000000000 0.1000000000 0.1000000000 0.1000000000 0.1000000000 0.1000000000 0.1000000000 0.1000000000 0.1000000000 0.1000000000 0.1000000000 0.1000000000 0.1000000000 0.1000000000 0.1000000000 0.1000000000 0.1000000000 0.1000000000 0.1000000000 0.1000000000 0.1000000000 0.1000000000 0.1000000000 0.1000000000 0.1000000000 0.1000000000 0.1000000000 0.1000000000 0.1000000000 0.1000000000 0.1000000000 0.1000000000 0.1000000000 0.1000000000 0.1000000000 0.1000000000 0.1000000000 0.1000000000 0.1000000000 0.1000000000 0.1000000000 0.1000000000 0.1000000000 0.1000000000 0.1000000000 0.1000000000 0.1000000000 0.1000000000 0.1000000000 0.1000000000 0.1000000000 0.1000000000 0.1000000000 0.1000000000 0.1000000000 0.1000000000 0.1000000000 0.1000000000 0.1000000000 0.1000000000 0.1000000000 0.1000000000 0.1000000000 0.1000000000 0.1000000000 0.1000000000 0.1000000000 0.1000000000 0.1000000000 0.1000000000 0.1000000000 0.1000000000 0.1000000000 0.1000000000 0.1000000000 0.1000000000 0.1000000000 0.1000000000 0.1000000000 0.1000000000 0.1000000000 0.1000000000 0.1000000000 0.1000000000 0.1000000000 0.1000000000 0.1000000000 0.1000000000 0.1000000000 0.1000000000 0.1000000000 0.1000000000 0.1000000000 0.1000000000 0.1000000000 0.1000000000 0.1000000000 0.1000000000 0.1000000000 0.1000000000 0.1000000000 0.1000000000 0.1000000000 0.1000000000 0.1000000000 0.1000000000 0.1000000000 0.1000000000 0.1000000000 0.1000000000 0.1000000000 0.1000000000 0.1000000000 0.1000000000 0.1000000000 0.1000000000 0.1000000000 0.1000000000 0.1000000000 0.1000000000 0.1000000000 0.1000000000 0.1000000000 0.1000000000 0.1000000000 0.1000000000 0.1000000000 0.1000000000 0.1000000000 0.1000000000 0.1000000000 0.1000000000 0.1000000000 0.1000000000 0.1000000000 0.1000000000 0.1000000000 0.1000000000 0.1000000000 0.1000000000 0.1000000000 0.1000000000 0.1000000000 0.1000000000 0.1000000000 0.1000000000 0.1000000000 0.1000000000 0.1000000000 0.1000000000 0.1000000000 0.1000000000 0.1000000000 0.1000000000 0.1000000000 0.1000000000 0.1000000000 0.1000000000 0.1000000000 0.1000000000 0.1000000000 0.1000000000 0.1000000000 0.1000000000 0.1000000000 0.1000000000 0.1000000000 0.1000000000 0.1000000000 0.1000000000 0.1000000000 0.1000000000 0.1000000000 0.1000000000 0.1000000000 0.1000000000 0.1000000000 0.1000000000 0.1000000000 0.1000000000 0.1000000000 0.1000000000 0.1000000000 0.1000000000 0.1000000000 0.1000000000 0.1000000000 0.1000000000 0.1000000000 0.1000000000 0.1000000000 0.1000000000 0.1000000000 0.1000000000 0.1000000000 0.1000000000 0.1000000000 0.1000000000 0.1000000000 0.1000000000 0.1000000000 0.1000000000 0.1000000000 0.1000000000 0.1000000000 0.1000000000 0.1000000000 0.1000000000 0.1000000000 0.1000000000 0.1000000000 0.1000000000 0.1000000000 0.1000000000 0.1000000000 0.1000000000 0.1000000000 0.1000000000 0.1000000000 0.1000000000 0.1000000000 0.1000000000 0.1000000000 0.1000000000 0.1000000000 0.1000000000 0.1000000000 0.1000000000 0.1000000000 0.1000000000 0.1000000000 0.1000000000 0.1000000000 0.1000000000 0.1000000000 0.1000000000 0.1000000000 0.1000000000 0.1000000000 0.1000000000 0.1000000000 0.1000000000 0.1000000000 0.1000000000 0.1000000000 0.1000000000 0.1000000000 0.1000000000 0.1000000000 0.1000000000 0.1000000000 0.1000000000 0.1000000000 0.1000000000 0.1000000000 0.1000000000 0.1000000000 0.1000000000 0.1000000000 0.1000000000 0.1000000000 0.1000000000 0.1000000000 0.1000000000 0.1000000000 0.1000000000 0.1000000000 0.1000000000 0.1000000000 0.1000000000 0.1000000000 0.1000000000 0.1000000000 0.1000000000 0.1000000000 0.1000000000 0.1000000000 0.1000000000 0.1000000000 0.1000000000 0.1000000000 0.1000000000 0.1000000000 0.1000000000 0.1000000000 0.1000000000 0.1000000000 0.1000000000 0.1000000000 0.1000000000 0.1000000000 0.1000000000 0.1000000000 0.1000000000 0.1000000000 0.1000000000 0.1000000000 0.1000000000 0.1000000000 0.1000000000 0.1000000000 0.1000000000 0.1000000000 0.1000000000 0.1000000000 0.1000000000 0.1000000000 0.1000000000 0.1000000000 0.1000000000 0.1000000000 0.1000000000 0.1000000000 0.1000000000 0.1000000000 0.1000000000 0.1000000000 0.1000000000 0.1000000000 0.1000000000 0.1000000000 0.1000000000 0.1000000000 0.1000000000 0.1000000000 0.1000000000 0.1000000000 0.1000000000 0.1000000000 0.1000000000 0.1000000000 0.1000000000 0.1000000000 0.1000000000 0.1000000000 0.1000000000 0.1000000000 0.1000000000 0.1000000000 0.1000000000 0.1000000000 0.1000000000 0.1000000000 0.1000000000 0.1000000000 0.1000000000 0.1000000000 0.1000000000 0.1000000000 0.1000000000 0.1000000000 0.1000000000 0.1000000000 0.1000000000 0.1000000000 0.1000000000 0.1000000000 0.1000000000 0.1000000000 0.1000000000 0.1000000000 0.1000000000 0.1000000000 0.1000000000 0.1000000000 0.1000000000 0.1000000000 0.1000000000 0.1000000000 0.1000000000 0.1000000000 0.1000000000 0.1000000000 0.1000000000 0.1000000000 0.1000000000 0.1000000000 0.1000000000 0.1000000000 0.1000000000 0.1000000000 0.1000000000 0.1000000000 0.1000000000 0.1000000000 0.1000000000 0.1000000000 0.1000000000 0.1000000000 0.1000000000 0.1000000000 0.1000000000 0.1000000000 0.1000000000 0.1000000000 0.1000000000 0.1000000000 0.1000000000 0.1000000000 0.1000000000 0.1000000000 0.1000000000 0.1000000000 0.1000000000 0.1000000000 0.1000000000 0.1000000000 0.1000000000 0.1000000000 0.1000000000 0.1000000000 0.1000000000 0.1000000000 0.1000000000 0.1000000000 0.1000000000 0.1000000000 0.1000000000 0.1000000000 0.1000000000 0.1000000000 0.1000000000 0.1000000000 0.1000000000 0.1000000000 0.1000000000 0.1000000000 0.1000000000 0.1000000000 0.1000000000 0.1000000000 0.1000000000 0.1000000000 0.1000000000 0.1000000000 0.1000000000 0.1000000000 0.1000000000 0.1000000000 0.1000000000 0.1000000000 0.1000000000 0.1000000000 0.1000000000 0.1000000000 0.1000000000 0.1000000000 0.1000000000 0.1000000000 0.1000000000 0.1000000000 0.1000000000 0.1000000000 0.1000000000 0.1000000000 0.1000000000 0.1000000000 0.1000000000 0.1000000000 0.1000000000 0.1000000000 0.1000000000 0.1000000000 0.1000000000 0.1000000000 0.1000000000 0.1000000000 0.1000000000 0.1000000000 0.1000000000 0.1000000000 0.1000000000 0.1000000000 0.1000000000 0.1000000000 0.1000000000 0.1000000000 0.1000000000 0.1000000000 0.1000000000 0.1000000000 0.1000000000 0.1000000000 0.1000000000 0.1000000000 0.1000000000 0.1000000000 0.1000000000 0.1000000000 0.1000000000 0.1000000000 0.1000000000 0.1000000000 0.1000000000 0.1000000000 0.1000000000 0.1000000000 0.1000000000 0.1000000000 0.1000000000 0.1000000000 0.1000000000 0.1000000000 0.1000000000 0.1000000000 0.10000000