<?xml version="1.0"?>
<VTKFile type="UnstructuredGrid" version="0.1" byte_order="LittleEndian">
  <UnstructuredGrid>
    <FieldData>
      <DataArray type="Float32" Name="TIME"  NumberOfTuples="1" format="ascii"> 3.5000000000 </DataArray>
      <DataArray type="Int32"   Name="STEP"  NumberOfTuples="1" format="ascii"> 875000 </DataArray>
    </FieldData>
    <Piece NumberOfPoints="11600" NumberOfCells="11600">
      <Points>
        <DataArray type="Float32" NumberOfComponents="3" format="ascii">
 -0.6516926940 -1.0851590963 -0.0000036558 -0.4517693084 -1.0796238180 -0.0000036753 -0.2518459204 -1.0740885400 -0.0000036948 -0.0519225352 -1.0685532616 -0.0000037161 0.1480008528 -1.0630179824 -0.0000037203 0.3479242394 -1.0574827031 -0.0000037108 0.5478476260 -1.0519474232 -0.0000036827 0.7477710131 -1.0464121436 -0.0000036338 0.9476943988 -1.0408768638 -0.0000035415 1.1476177861 -1.0353415839 -0.0000034340 1.3475411729 -1.0298063041 -0.0000033144 1.5474645598 -1.0242710243 -0.0000031877 1.7473879478 -1.0187357444 -0.0000030589 1.9473113348 -1.0132004642 -0.0000029213 2.1472347233 -1.0076651835 -0.0000027981 2.3471581110 -1.0021299033 -0.0000026752 2.5470814988 -0.9965946232 -0.0000025487 2.7470048878 -0.9910593436 -0.0000024142 2.9469282792 -0.9855240629 -0.0000022572 3.1468516684 -0.9799887822 -0.0000020850 3.3467750566 -0.9744535024 -0.0000019022 3.5466984450 -0.9689182228 -0.0000017118 3.7466218341 -0.9633829442 -0.0000015171 3.9465452256 -0.9578476653 -0.0000013109 4.1464686140 -0.9523123860 -0.0000011178 4.3463920019 -0.9467771079 -0.0000009299 4.5463153898 -0.9412418297 -0.0000007515 4.7462387784 -0.9357065512 -0.0000005857 4.9461621661 -0.9301712724 -0.0000004354 5.1460855553 -0.9246359920 -0.0000003249 5.3460089429 -0.9191007109 -0.0000002336 5.5459323290 -0.9135654293 -0.0000001603 5.7458557156 -0.9080301492 -0.0000001012 5.9457791019 -0.9024948689 -0.0000000704 6.1457024891 -0.8969595869 -0.0000000483 6.3456258754 -0.8914243035 -0.0000000381 6.5455492608 -0.8858890197 -0.0000000391 6.7454726465 -0.8803537372 -0.0000000485 6.9453960295 -0.8748184550 -0.0000000762 7.1453194148 -0.8692831734 -0.0000000888 7.3452427995 -0.8637478925 -0.0000000933 7.5451661842 -0.8582126116 -0.0000000881 7.7450895690 -0.8526773304 -0.0000000750 7.9450129503 -0.8471420498 -0.0000000437 8.1449363340 -0.8416067700 -0.0000000096 8.3448597169 -0.8360714917 0.0000000312 8.5447830999 -0.8305362140 0.0000000781 8.7447064835 -0.8250009369 0.0000001299 8.9446298632 -0.8194656600 0.0000001941 9.1445532464 -0.8139303840 0.0000002544 9.3444766288 -0.8083951091 0.0000003174 9.5444000113 -0.8028598350 0.0000003861 9.7443233945 -0.7973245615 0.0000004630 9.9442467741 -0.7917892892 0.0000005491 10.1441701577 -0.7862540178 0.0000006529 10.3440935410 -0.7807187477 0.0000007594 10.5440169242 -0.7751834783 0.0000008626 10.7439403082 -0.7696482099 0.0000009564 10.9438636877 -0.7641129426 0.0000010308 11.1437870709 -0.7585776768 0.0000010739 11.3437104528 -0.7530424136 0.0000010996 11.5436338349 -0.7475071535 0.0000011094 11.7435572185 -0.7419718961 0.0000011069 11.9434805983 -0.7364366405 0.0000010901 12.1434039832 -0.7309013867 0.0000010675 12.3433273641 -0.7253661356 0.0000010412 12.5432507493 -0.7198308858 0.0000010187 12.7431741353 -0.7142956389 0.0000009992 12.9430975193 -0.7087603929 0.0000009871 13.1430209081 -0.7032251477 0.0000009740 13.3429442941 -0.6976899021 0.0000009611 13.6056224412 -0.6758311082 0.0000000000 13.8056201224 -0.6767940461 0.0000000000 14.0056178035 -0.6777569838 0.0000000000 14.2056154873 -0.6787199209 0.0000000000 14.4056131686 -0.6796828590 0.0000000000 14.6056108510 -0.6806457962 0.0000000000 14.8056085334 -0.6816087342 0.0000000000 15.0056062148 -0.6825716718 0.0000000000 15.2056038981 -0.6835346094 0.0000000000 15.4056015796 -0.6844975472 0.0000000000 15.6055992623 -0.6854604849 0.0000000000 15.8055969446 -0.6864234221 0.0000000000 16.1155061887 -0.5095328307 -0.0000001322 16.3153730438 -0.5022364237 -0.0000005831 16.5152398890 -0.4949400212 -0.0000016626 16.7151067418 -0.4876436250 0.0000001872 16.9149735933 -0.4803472302 -0.0000002741 17.1148404459 -0.4730508352 -0.0000015965 17.3147073012 -0.4657544399 -0.0000012935 17.5145741526 -0.4584580431 -0.0000002244 17.7144410099 -0.4511616422 -0.0000017612 17.9143078657 -0.4438652402 -0.0000018717 18.1141747203 -0.4365688428 -0.0000007661 18.3140415747 -0.4292724529 0.0000001808 18.5139084193 -0.4219760746 -0.0000005458 18.7137752770 -0.4146797047 -0.0000005788 18.9136421351 -0.4073833349 -0.0000008392 19.1135089937 -0.4000869673 -0.0000014021 19.3133758532 -0.3927906039 0.0000001165 -0.5565246924 -0.9092527262 -0.0000035494 -0.3566013066 -0.9037174484 -0.0000035649 -0.1566779197 -0.8981821697 -0.0000035794 0.0432454672 -0.8926468912 -0.0000035862 0.2431688535 -0.8871116120 -0.0000035813 0.4430922399 -0.8815763322 -0.0000035614 0.6430156263 -0.8760410522 -0.0000035229 0.8429390132 -0.8705057724 -0.0000034606 1.0428624003 -0.8649704928 -0.0000033700 1.2427857868 -0.8594352131 -0.0000032647 1.4427091736 -0.8538999332 -0.0000031507 1.6426325606 -0.8483646531 -0.0000030318 1.8425559483 -0.8428293730 -0.0000029106 2.0424793364 -0.8372940928 -0.0000027908 2.2424027241 -0.8317588125 -0.0000026729 2.4423261121 -0.8262235323 -0.0000025526 2.6422495004 -0.8206882522 -0.0000024253 2.8421728904 -0.8151529724 -0.0000022847 3.0420962805 -0.8096176918 -0.0000021240 3.2420196694 -0.8040824115 -0.0000019505 3.4419430583 -0.7985471316 -0.0000017681 3.6418664474 -0.7930118524 -0.0000015800 3.8417898375 -0.7874765740 -0.0000013886 4.0417132275 -0.7819412948 -0.0000011990 4.2416366162 -0.7764060160 -0.0000010156 4.4415600043 -0.7708707378 -0.0000008403 4.6414833922 -0.7653354593 -0.0000006760 4.8414067802 -0.7598001804 -0.0000005271 5.0413301683 -0.7542649010 -0.0000004055 5.2412535556 -0.7487296205 -0.0000003060 5.4411769422 -0.7431943388 -0.0000002237 5.6411003286 -0.7376590577 -0.0000001559 5.8410237151 -0.7321237775 -0.0000001028 6.0409471013 -0.7265884964 -0.0000000666 6.2408704871 -0.7210532138 -0.0000000416 6.4407938729 -0.7155179301 -0.0000000268 6.6407172584 -0.7099826466 -0.0000000222 6.8406406437 -0.7044473640 -0.0000000263 7.0405640287 -0.6989120822 -0.0000000334 7.2404874135 -0.6933768012 -0.0000000352 7.4404107983 -0.6878415204 -0.0000000298 7.6403341826 -0.6823062392 -0.0000000172 7.8402575667 -0.6767709579 0.0000000029 8.0401809505 -0.6712356777 0.0000000306 8.2401043340 -0.6657003988 0.0000000622 8.4400277175 -0.6601651207 0.0000000979 8.6399511006 -0.6546298432 0.0000001379 8.8398744835 -0.6490945658 0.0000001829 9.0397978663 -0.6435592895 0.0000002330 9.2397212493 -0.6380240141 0.0000002864 9.4396446323 -0.6324887396 0.0000003455 9.6395680153 -0.6269534659 0.0000004133 9.8394913983 -0.6214181926 0.0000004927 10.0394147815 -0.6158829207 0.0000005882 10.2393381651 -0.6103476502 0.0000006933 10.4392615491 -0.6048123807 0.0000007998 10.6391849328 -0.5992771117 0.0000009010 10.8391083164 -0.5937418435 0.0000009886 11.0390316999 -0.5882065771 0.0000010510 11.2389550836 -0.5826713126 0.0000010923 11.4388784675 -0.5771360510 0.0000011164 11.6388018512 -0.5716007920 0.0000011259 11.8387252355 -0.5660655351 0.0000011227 12.0386486199 -0.5605302811 0.0000011070 12.2385720045 -0.5549950281 0.0000010857 12.4384953900 -0.5494597782 0.0000010624 12.6384187756 -0.5439245303 0.0000010406 12.8383421625 -0.5383892831 0.0000010222 13.0382655497 -0.5328540387 0.0000010073 13.2381889374 -0.5273187934 0.0000009933 13.5064575264 -0.5021465692 0.0000000000 13.7064552095 -0.5031095052 0.0000000000 13.9064528917 -0.5040724427 0.0000000000 14.1064505739 -0.5050353807 0.0000000000 14.3064482561 -0.5059983182 0.0000000000 14.5064459383 -0.5069612560 0.0000000000 14.7064436203 -0.5079241938 0.0000000000 14.9064413024 -0.5088871313 0.0000000000 15.1064389849 -0.5098500694 0.0000000000 15.3064366670 -0.5108130066 0.0000000000 15.5064343495 -0.5117759440 0.0000000000 15.7064320290 -0.5127388839 0.0000000000 16.0092538837 -0.3400912572 -0.0000004748 16.2091207414 -0.3327948488 0.0000006917 16.4089875972 -0.3254984412 0.0000000726 16.6088544506 -0.3182020401 -0.0000006893 16.8087213028 -0.3109056444 -0.0000002827 17.0085881551 -0.3036092502 -0.0000011738 17.2084550079 -0.2963128555 -0.0000000947 17.4083218621 -0.2890164590 0.0000000073 17.6081887170 -0.2817200596 -0.0000007288 17.8080555731 -0.2744236583 -0.0000009322 18.0079224304 -0.2671272595 -0.0000021385 18.2077892877 -0.2598308667 -0.0000016897 18.4076561454 -0.2525344811 -0.0000022647 18.6075230042 -0.2452381085 -0.0000015045 18.8073898634 -0.2379417387 -0.0000004991 19.0072567230 -0.2306453687 -0.0000004484 19.2071235840 -0.2233490017 -0.0000007530 19.4069904444 -0.2160526389 0.0000000460 -0.6612800777 -0.7388816336 -0.0000034272 -0.4613566914 -0.7333463551 -0.0000034376 -0.2614333040 -0.7278110766 -0.0000034475 -0.0615099191 -0.7222757980 -0.0000034533 0.1384134680 -0.7167405191 -0.0000034497 0.3383368543 -0.7112052397 -0.0000034353 0.5382602408 -0.7056699601 -0.0000034060 0.7381836279 -0.7001346803 -0.0000033597 0.9381070137 -0.6945994003 -0.0000032901 1.1380304008 -0.6890641209 -0.0000032011 1.3379537878 -0.6835288410 -0.0000031017 1.5378771746 -0.6779935609 -0.0000029957 1.7378005621 -0.6724582811 -0.0000028865 1.9377239489 -0.6669230005 -0.0000027757 2.1376473372 -0.6613877207 -0.0000026646 2.3375707253 -0.6558524405 -0.0000025510 2.5374941135 -0.6503171606 -0.0000024314 2.7374175024 -0.6447818809 -0.0000023016 2.9373408925 -0.6392466002 -0.0000021548 3.1372642818 -0.6337113200 -0.0000019913 3.3371876710 -0.6281760399 -0.0000018179 3.5371110603 -0.6226407604 -0.0000016379 3.7370344496 -0.6171054815 -0.0000014547 3.9369578406 -0.6115702024 -0.0000012717 4.1368812298 -0.6060349236 -0.0000010940 4.3368046186 -0.6004996451 -0.0000009233 4.5367280067 -0.5949643667 -0.0000007625 4.7366513951 -0.5894290876 -0.0000006146 4.9365747820 -0.5838938084 -0.0000004871 5.1364981696 -0.5783585283 -0.0000003822 5.3364215561 -0.5728232471 -0.0000002928 5.536344
[...]
      <PointData Scalars="radius">
        <DataArray type="Float32" Name="radius" format="ascii">
 0.1000000000 0.1000000000 0.1000000000 0.1000000000 0.1000000000 0.1000000000 0.1000000000 0.1000000000 0.1000000000 0.1000000000 0.1000000000 0.1000000000 0.1000000000 0.1000000000 0.1000000000 0.1000000000 0.1000000000 0.1000000000 0.1000000000 0.1000000000 0.1000000000 0.1000000000 0.1000000000 0.1000000000 0.1000000000 0.1000000000 0.1000000000 0.1000000000 0.1000000000 0.1000000000 0.1000000000 0.1000000000 0.1000000000 0.1000000000 0.1000000000 0.1000000000 0.1000000000 0.1000000000 0.1000000000 0.1000000000 0.1000000000 0.1000000000 0.1000000000 0.1000000000 0.1000000000 0.1000000000 0.1000000000 0.1000000000 0.1000000000 0.1000000000 0.1000000000 0.1000000000 0.1000000000 0.1000000000 0.1000000000 0.1000000000 0.1000000000 0.1000000000 0.1000000000 0.1000000000 0.1000000000 0.1000000000 0.1000000000 0.1000000000 0.1000000000 0.1000000000 0.1000000000 0.1000000000 0.1000000000 0.1000000000 0.1000000000 0.1000000000 0.1000000000 0.1000000000 0.1000000000 0.1000000000 0.1000000000 0.1000000000 0.1000000000 0.1000000000 0.1000000000 0.1000000000 0.1000000000 0.1000000000 0.1000000000 0.1000000000 0.1000000000 0.1000000000 0.1000000000 0.1000000000 0.1000000000 0.1000000000 0.1000000000 0.1000000000 0.1000000000 0.1000000000 0.1000000000 0.1000000000 0.1000000000 0.1000000000 0.1000000000 0.1000000000 0.1000000000 0.1000000000 0.1000000000 0.1000000000 0.1000000000 0.1000000000 0.1000000000 0.1000000000 0.1000000000 0.1000000000 0.1000000000 0.1000000000 0.1000000000 0.1000000000 0.1000000000 0.1000000000 0.1000000000 0.1000000000 0.1000000000 0.1000000000 0.1000000000 0.1000000000 0.1000000000 0.1000000000 0.1000000000 0.1000000000 0.1000000000 0.1000000000 0.1000000000 0.1000000000 0.1000000000 0.1000000000 0.1000000000 0.1000000000 0.1000000000 0.1000000000 0.1000000000 0.1000000000 0.1000000000 0.1000000000 0.1000000000 0.1000000000 0.1000000000 0.1000000000 0.1000000000 0.1000000000 0.1000000000 0.1000000000 0.1000000000 0.1000000000 0.1000000000 0.1000000000 0.1000000000 0.1000000000 0.1000000000 0.1000000000 0.1000000000 0.1000000000 0.1000000000 0.1000000000 0.1000000000 0.1000000000 0.1000000000 0.1000000000 0.1000000000 0.1000000000 0.1000000000 0.1000000000 0.1000000000 0.1000000000 0.1000000000 0.1000000000 0.1000000000 0.1000000000 0.1000000000 0.1000000000 0.1000000000 0.1000000000 0.1000000000 0.1000000000 0.1000000000 0.1000000000 0.1000000000 0.1000000000 0.1000000000 0.1000000000 0.1000000000 0.1000000000 0.1000000000 0.1000000000 0.1000000000 0.1000000000 0.1000000000 0.1000000000 0.1000000000 0.1000000000 0.1000000000 0.1000000000 0.1000000000 0.1000000000 0.1000000000 0.1000000000 0.1000000000 0.1000000000 0.1000000000 0.1000000000 0.1000000000 0.1000000000 0.1000000000 0.1000000000 0.1000000000 0.1000000000 0.1000000000 0.1000000000 0.1000000000 0.1000000000 0.1000000000 0.1000000000 0.1000000000 0.1000000000 0.1000000000 0.1000000000 0.1000000000 0.1000000000 0.1000000000 0.1000000000 0.1000000000 0.1000000000 0.1000000000 0.1000000000 0.1000000000 0.1000000000 0.1000000000 0.1000000000 0.1000000000 0.1000000000 0.1000000000 0.1000000000 0.1000000000 0.1000000000 0.1000000000 0.1000000000 0.1000000000 0.1000000000 0.1000000000 0.1000000000 0.1000000000 0.1000000000 0.1000000000 0.1000000000 0.1000000000 0.1000000000 0.1000000000 0.1000000000 0.1000000000 0.1000000000 0.1000000000 0.1000000000 0.1000000000 0.1000000000 0.1000000000 0.1000000000 0.1000000000 0.1000000000 0.1000000000 0.1000000000 0.1000000000 0.1000000000 0.1000000000 0.1000000000 0.1000000000 0.1000000000 0.1000000000 0.1000000000 0.1000000000 0.1000000000 0.1000000000 0.1000000000 0.1000000000 0.1000000000 0.1000000000 0.1000000000 0.1000000000 0.1000000000 0.1000000000 0.1000000000 0.1000000000 0.1000000000 0.1000000000 0.1000000000 0.1000000000 0.1000000000 0.1000000000 0.1000000000 0.1000000000 0.1000000000 0.1000000000 0.1000000000 0.1000000000 0.1000000000 0.1000000000 0.1000000000 0.1000000000 0.1000000000 0.1000000000 0.1000000000 0.1000000000 0.1000000000 0.1000000000 0.1000000000 0.1000000000 0.1000000000 0.1000000000 0.1000000000 0.1000000000 0.1000000000 0.1000000000 0.1000000000 0.1000000000 0.1000000000 0.1000000000 0.1000000000 0.1000000000 0.1000000000 0.1000000000 0.1000000000 0.1000000000 0.1000000000 0.1000000000 0.1000000000 0.1000000000 0.1000000000 0.1000000000 0.1000000000 0.1000000000 0.1000000000 0.1000000000 0.1000000000 0.1000000000 0.1000000000 0.1000000000 0.1000000000 0.1000000000 0.1000000000 0.1000000000 0.1000000000 0.1000000000 0.1000000000 0.1000000000 0.1000000000 0.1000000000 0.1000000000 0.1000000000 0.1000000000 0.1000000000 0.1000000000 0.1000000000 0.1000000000 0.1000000000 0.1000000000 0.1000000000 0.1000000000 0.1000000000 0.1000000000 0.1000000000 0.1000000000 0.1000000000 0.1000000000 0.1000000000 0.1000000000 0.1000000000 0.1000000000 0.1000000000 0.1000000000 0.1000000000 0.1000000000 0.1000000000 0.1000000000 0.1000000000 0.1000000000 0.1000000000 0.1000000000 0.1000000000 0.1000000000 0.1000000000 0.1000000000 0.1000000000 0.1000000000 0.1000000000 0.1000000000 0.1000000000 0.1000000000 0.1000000000 0.1000000000 0.1000000000 0.1000000000 0.1000000000 0.1000000000 0.1000000000 0.1000000000 0.1000000000 0.1000000000 0.1000000000 0.1000000000 0.1000000000 0.1000000000 0.1000000000 0.1000000000 0.1000000000 0.1000000000 0.1000000000 0.1000000000 0.1000000000 0.1000000000 0.1000000000 0.1000000000 0.1000000000 0.1000000000 0.1000000000 0.1000000000 0.1000000000 0.1000000000 0.1000000000 0.1000000000 0.1000000000 0.1000000000 0.1000000000 0.1000000000 0.1000000000 0.1000000000 0.1000000000 0.1000000000 0.1000000000 0.1000000000 0.1000000000 0.1000000000 0.1000000000 0.1000000000 0.1000000000 0.1000000000 0.1000000000 0.1000000000 0.1000000000 0.1000000000 0.1000000000 0.1000000000 0.1000000000 0.1000000000 0.1000000000 0.1000000000 0.1000000000 0.1000000000 0.1000000000 0.1000000000 0.1000000000 0.1000000000 0.1000000000 0.1000000000 0.1000000000 0.1000000000 0.1000000000 0.1000000000 0.1000000000 0.1000000000 0.1000000000 0.1000000000 0.1000000000 0.1000000000 0.1000000000 0.1000000000 0.1000000000 0.1000000000 0.1000000000 0.1000000000 0.1000000000 0.1000000000 0.1000000000 0.1000000000 0.1000000000 0.1000000000 0.1000000000 0.1000000000 0.1000000000 0.1000000000 0.1000000000 0.1000000000 0.1000000000 0.1000000000 0.1000000000 0.1000000000 0.1000000000 0.1000000000 0.1000000000 0.1000000000 0.1000000000 0.1000000000 0.1000000000 0.1000000000 0.1000000000 0.1000000000 0.1000000000 0.1000000000 0.1000000000 0.1000000000 0.1000000000 0.1000000000 0.1000000000 0.1000000000 0.1000000000 0.1000000000 0.1000000000 0.1000000000 0.1000000000 0.1000000000 0.1000000000 0.1000000000 0.1000000000 0.1000000000 0.1000000000 0.1000000000 0.1000000000 0.1000000000 0.1000000000 0.1000000000 0.1000000000 0.1000000000 0.1000000000 0.1000000000 0.1000000000 0.1000000000 0.1000000000 0.1000000000 0.1000000000 0.1000000000 0.1000000000 0.1000000000 0.1000000000 0.1000000000 0.1000000000 0.1000000000 0.1000000000 0.1000000000 0.1000000000 0.1000000000 0.1000000000 0.1000000000 0.1000000000 0.1000000000 0.1000000000 0.1000000000 0.1000000000 0.1000000000 0.1000000000 0.1000000000 0.1000000000 0.1000000000 0.1000000000 0.1000000000 0.1000000000 0.1000000000 0.1000000000 0.1000000000 0.1000000000 0.1000000000 0.1000000000 0.1000000000 0.1000000000 0.1000000000 0.1000000000 0.1000000000 0.1000000000 0.1000000000 0.1000000000 0.1000000000 0.1000000000 0.1000000000 0.1000000000 0.1000000000 0.1000000000 0.1000000000 0.1000000000 0.1000000000 0.1000000000 0.1000000000 0.1000000000 0.1000000000 0.1000000000 0.1000000000 0.1000000000 0.1000000000 0.1000000000 0.1000000000 0.1000000000 0.1000000000 0.1000000000 0.1000000000 0.1000000000 0.1000000000 0.1000000000 0.1000000000 0.1000000000 0.1000000000 0.1000000000 0.1000000000 0.1000000000 0.1000000000 0.1000000000 0.1000000000 0.1000000000 0.1000000000 0.1000000000 0.1000000000 0.1000000000 0.1000000000 0.1000000000 0.1000000000 0.1000000000 0.1000000000 0.1000000000 0.1000000000 0.1000000000 0.1000000000 0.1000000000 0.1000000000 0.1000000000 0.1000000000 0.1000000000 0.1000000000 0.1000000000 0.1000000000 0.1000000000 0.1000000000 0.1000000000 0.1000000000 0.1000000000 0.1000000000 0.1000000000 0.1000000000 0.1000000000 0.1000000000 0.1000000000 0.1000000000 0.1000000000 0.1000000000 0.1000000000 0.1000000000 0.1000000000 0.1000000000 0.1000000000 0.1000000000 0.1000000000 0.1000000000 0.1000000000 0.1000000000 0.1000000000 0.1000000000 0.1000000000 0.1000000000 0.1000000000 0.1000000000 0.1000000000 0.1000000000 0.1000000000 0.1000000000 0.1000000000 0.1000000000 0.1000000000 0.1000000000 0.1000000000 0.1000000000 0.1000000000 0.1000000000 0.1000000000 0.1000000000 0.1000000000 0.1000000000 0.1000000000 0.1000000000 0.1000000000 0.1000000000 0.1000000000 0.1000000000 0.1000000000 0.1000000000 0.1000000000 0.1000000000 0.1000000000 0.1000000000 0.1000000000 0.1000000000 0.1000000000 0.1000000000 0.1000000000 0.1000000000 0.1000000000 0.1000000000 0.1000000000 0.1000000000 0.1000000000 0.1000000000 0.1000000000 0.1000000000 0.1000000000 0.1000000000 0.1000000000 0.1000000000 0.1000000000 0.1000000000 0.1000000000 0.1000000000 0.1000000000 0.1000000000 0.1000000000 0.1000000000 0.1000000000 0.1000000000 0.1000000000 0.1000000000 0.1000000000 0.1000000000 0.1000000000 0.1000000000 0.1000000000 0.1000000000 0.1000000000 0.1000000000 0.1000000000 0.1000000000 0.1000000000 0.1000000000 0.1000000000 0.1000000000 0.1000000000 0.1000000000 0.1000000000 0.1000000000 0.1000000000 0.1000000000 0.1000000000 0.1000000000 0.1000000000 0.1000000000 0.1000000000 0.1000000000 0.1000000000 0.1000000000 0.1000000000 0.1000000000 0.1000000000 0.1000000000 0.1000000000 0.1000000000 0.1000000000 0.1000000000 0.1000000000 0.1000000000 0.1000000000 0.1000000000 0.1000000000 0.1000000000 0.1000000000 0.1000000000 0.1000000000 0.1000000000 0.1000000000 0.1000000000 0.1000000000 0.1000000000 0.1000000000 0.1000000000 0.1000000000 0.1000000000 0.1000000000 0.1000000000 0.1000000000 0.1000000000 0.1000000000 0.1000000000 0.1000000000 0.1000000000 0.1000000000 0.1000000000 0.1000000000 0.1000000000 0.1000000000 0.1000000000 0.1000000000 0.1000000000 0.1000000000 0.1000000000 0.1000000000 0.1000000000 0.1000000000 0.1000000000 0.1000000000 0.1000000000 0.1000000000 0.1000000000 0.1000000000 0.1000000000 0.1000000000 0.1000000000 0.1000000000 0.1000000000 0.1000000000 0.1000000000 0.1000000000 0.1000000000 0.1000000000 0.1000000000 0.1000000000 0.1000000000 0.1000000000 0.1000000000 0.1000000000 0.1000000000 0.1000000000 0.1000000000 0.1000000000 0.1000000000 0.1000000000 0.1000000000 0.1000000000 0.1000000000 0.1000000000 0.1000000000 0.1000000000 0.1000000000 0.1000000000 0.1000000000 0.1000000000 0.1000000000 0.1000000000 0.1000000000 0.1000000000 0.1000000000 0.1000000000 0.1000000000 0.1000000000 0.1000000000 0.1000000000 0.1000000000 0.1000000000 0.1000000000 0.1000000000 0.1000000000 0.1000000000 0.1000000000 0.1000000000 0.1000000000 0.1000000000 0.1000000000 0.1000000000 0.1000000000 0.1000000000 0.1000000000 0.1000000000 0.1000000000 0.1000000000 0.1000000000 0.1000000000 0.1000000000 0.1000000000 0.1000000000 0.1000000000 0.1000000000 0.1000000000 0.1000000000 0.1000000000 0.1000000000 0.1000000000 0.1000000000 0.1000000000 0.1000000000 0.1000000000 0.1000000000 0.1000000000 0.1000000000 0.1000000000 0.1000000000 0.1000000000 0.1000000000 0.1000000000 0.1000000000 0.1000000000 0.1000000000 0.1000000000 0.1000000000 0.1000000000 0.1000000000 0.1000000000 0.1000000000 0.1000000000 0.1000000000 0.1000000000 0.1000000000 0.1000000000 0.1000000000 0.1000000000 0.1000000000 0.1000000000 0.1000000000 0.1000000000 0.1000000000 0.1000000000 0.1000000000 0.1000000000 0.1000000000 0.1000000000 0.1000000000 0.1000000000 0.1000000000 0.1000000000 0.1000000000 0.1000000000 0.1000000000 0.1000000000 0.1000000000 0.1000000000 0.1000000000 0.1000000000 0.1000000000 0.1000000000 0.1000000000 0.1000000000 0.1000000000 0.1000000000 0.1000000000 0.1000000000 0.1000000000 0.1000000000 0.1000000000 0.1000000000 0.1000000000 0.1000000000 0.1000000000 0.1000000000 0.1000000000 0.1000000000 0.1000000000 0.1000000000 0.1000000000 0.1000000000 0.1000000000 0.1000000000 0.1000000000 0.1000000000 0.1000000000 0.1000000000 0.1000000000 0.1000000000 0.1000000000 0.1000000000 0.1000000000 0.1000000000 0.1000000000 0.1000000000 0.1000000000 0.1000000000 0.1000000000 0.1000000000 0.1000000000 0.1000000000 0.1000000000 0.1000000000 0.1000000000 0.1000000000 0.1000000000 0.1000000000 0.1000000000 0.1000000000 0.1000000000 0.1000000000 0.1000000000 0.1000000000 0.1000000000 0.1000000000 0.1000000000 0.1000000000 0.1000000000 0.1000000000 0.1000000000 0.1000000000 0.1000000000 0.1000000000 0.1000000000 0.1000000000 0.1000000000 0.1000000000 0.1000000000 0.1000000000 0.1000000000 0.1000000000 0.1000000000 0.1000000000 0.1000000000 0.1000000000 0.1000000000 0.1000000000 0.1000000000 0.1000000000 0.1000000000 0.1000000000 0.1000000000 0.1000000000 0.1000000000 0.1000000000 0.1000000000 0.1000000000 0.1000000000 0.1000000000 0.1000000000 0.1000000000 0.1000000000 0.1000000000 0.1000000000 0.1000000000 0.1000000000 0.1000000000 0.1000000000 0.1000000000 0.1000000000 0.1000000000 0.1000000000 0.1000000000 0.1000000000 0.1000000000 0.1000000000 0.1000000000 0.1000000000 0.1000000000 0.1000000000 0.1000000000 0.1000000000 0.1000000000 0.1000000000 0.1000000000 0.1000000000 0.1000000000 0.1000000000 0.1000000000 0.1000000000 0.1000000000 0.1000000000 0.1000000000 0.1000000000 0.1000000000 0.1000000000 0.1000000000 0.1000000000 0.1000000000 0.1000000000 0.1000000000 0.1000000000 0.1000000000 0.1000000000 0.1000000000 0.1000000000 0.1000000000 0.1000000000 0.1000000000 0.1000000000 0.1000000000 0.1000000000 0.1000000000 0.1000000000 0.1000000000 0.1000000000 0.1000000000 0.1000000000 0.1000000000 0.1000000000 0.1000000000 0.1000000000 0.1000000000 0.1000000000 0.1000000000 0.1000000000 0.1000000000 0.1000000000 0.1000000000 0.1000000000 0.1000000000 0.1000000000 0.1000000000 0.1000000000 0.1000000000 0.1000000000 0.1000000000 0.1000000000 0.1000000000 0.1000000000 0.1000000000 0.1000000000 0.1000000000 0.1000000000 0.1000000000 0.1000000000 0.1000000000 0.1000000000 0.1000000000 0.1000000000 0.1000000000 0.1000000000 0.1000000000 0.1000000000 0.1000000000 0.1000000000 0.1000000000 0.1000000000 0.1000000000 0.1000000000 0.1000000000 0.1000000000 0.1000000000 0.1000000000 0.1000000000 0.1000000000 0.1000000000 0.1000000000 0.1000000000 0.1000000000 0.1000000000 0.1000000000 0.1000000000 0.1000000000 0.1000000000 0.1000000000 0.1000000000 0.1000000000 0.1000000000 0.1000000000 0.1000000000 0.1000000000 0.1000000000 0.1000000000 0.1000000000 0.1000000000 0.1000000000 0.1000000000 0.1000000000 0.1000000000 0.1000000000 0.1000000000 0.1000000000 0.1000000000 0.1000000000 0.1000000000 0.1000000000 0.1000000000 0.1000000000 0.1000000000 0.1000000000 0.1000000000 0.1000000000 0.1000000000 0.1000000000 0.1000000000 0.1000000000 0.1000000000 0.1000000000 0.1000000000 0.1000000000 0.1000000000 0.1000000000 0.1000000000 0.1000000000 0.1000000000 0.1000000000 0.1000000000 0.1000000000 0.1000000000 0.1000000000 0.1000000000 0.1000000000 0.1000000000 0.1000000000 0.1000000000 0.1000000000 0.1000000000 0.1000000000 0.1000000000 0.1000000000 0.1000000000 0.1000000000 0.1000000000 0.1000000000 0.1000000000 0.1000000000 0.1000000000 0.1000000000 0.1000000000 0.1000000000 0.1000000000 0.1000000000 0.1000000000 0.1000000000 0.1000000000 0.1000000000 0.1000000000 0.1000000000 0.1000000000 0.1000000000 0.1000000000 0.1000000000 0.1000000000 0.1000000000 0.1000000000 0.1000000000 0.1000000000 0.1000000000 0.1000000000 0.1000000000 0.1000000000 0.1000000000 0.1000000000 0.1000000000 0.1000000000 0.1000000000 0.1000000000 0.1000000000 0.1000000000 0.1000000000 0.1000000000 0.1000000000 0.1000000000 0.1000000000 0.1000000000 0.1000000000 0.1000000000 0.1000000000 0.1000000000 0.1000000000 0.1000000000 0.1000000000 0.1000000000 0.1000000000 0.1000000000 0.1000000000 0.1000000000 0.1000000000 0.1000000000 0.1000000000 0.1000000000 0.1000000000 0.1000000000 0.1000000000 0.1000000000 0.1000000000 0.1000000000 0.1000000000 0.1000000000 0.1000000000 0.1000000000 0.1000000000 0.1000000000 0.1000000000 0.1000000000 0.1000000000 0.1000000000 0.1000000000 0.1000000000 0.1000000000 0.1000000000 0.1000000000 0.1000000000 0.1000000000 0.1000000000 0.1000000000 0.1000000000 0.1000000000 0.1000000000 0.1000000000 0.1000000000 0.1000000000 0.1000000000 0.1000000000 0.1000000000 0.1000000000 0.1000000000 0.1000000000 0.1000000000 0.1000000000 0.1000000000 0.1000000000 0.1000000000 0.1000000000 0.1000000000 0.1000000000 0.1000000000 0.1000000000 0.1000000000 0.1000000000 0.1000000000 0.1000000000 0.1000000000 0.1000000000 0.1000000000 0.1000000000 0.1000000000 0.1000000000 0.1000000000 0.1000000000 0.1000000000 0.1000000000 0.1000000000 0.1000000000 0.1000000000 0.1000000000 0.1000000000 0.1000000000 0.1000000000 0.1000000000 0.1000000000 0.1000000000 0.1000000000 0.1000000000 0.1000000000 0.1000000000 0.1000000000 0.1000000000 0.1000000000 0.1000000000 0.1000000000 0.1000000000 0.1000000000 0.1000000000 0.1000000000 0.1000000000 0.1000000000 0.1000000000 0.1000000000 0.1000000000 0.1000000000 0.1000000000 0.1000000000 0.1000000000 0.1000000000 0.1000000000 0.1000000000 0.1000000000 0.1000000000 0.1000000000 0.1000000000 0.1000000000 0.1000000000 0.1000000000 0.1000000000 0.1000000000 0.1000000000 0.1000000000 0.1000000000 0.1000000000 0.1000000000 0.1000000000 0.1000000000 0.1000000000 0.1000000000 0.1000000000 0.1000000000 0.1000000000 0.1000000000 0.1000000000 0.1000000000 0.1000000000 0.1000000000 0.1000000000 0.1000000000 0.1000000000 0.1000000000 0.1000000000 0.1000000000 0.1000000000 0.1000000000 0.1000000000 0.1000000000 0.1000000000 0.1000000000 0.1000000000 0.1000000000 0.1000000000 0.1000000000 0.1000000000 0.1000000000 0.1000000000 0.1000000000 0.1000000000 0.1000000000 0.1000000000 0.1000000000 0.1000000000 0.1000000000 0.1000000000 0.1000000000 0.1000000000 0.1000000000 0.1000000000 0.1000000000 0.1000000000 0.1000000000 0.1000000000 0.1000000000 0.1000000000 0.1000000000 0.1000000000 0.1000000000 0.1000000000 0.1000000000 0.1000000000 0.1000000000 0.1000000000 0.1000000000 0.1000000000 0.1000000000 0.1000000000 0.1000000000 0.1000000000 0.1000000000 0.1000000000 0.1000000000 0.1000000000 0.1000000000 0.1000000000 0.1000000000 0.1000000000 0.1000000000 0.1000000000 0.1000000000 0.1000000000 0.1000000000 0.1000000000 0.1000000000 0.1000000000 0.1000000000 0.1000000000 0.1000000000 0.1000000000 0.1000000000 0.1000000000 0.1000000000 0.1000000000 0.1000000000 0.1000000000 0.1000000000 0.1000000000 0.1000000000 0.1000000000 0.1000000000 0.1000000000 0.1000000000 0.1000000000 0.1000000000 0.1000000000 0.1000000000 0.1000000000 0.1000000000 0.1000000000 0.1000000000 0.1000000000 0.1000000000 0.1000000000 0.1000000000 0.1000000000 0.1000000000 0.1000000000 0.1000000000 0.1000000000 0.1000000000 0.1000000000 0.1000000000 0.1000000000 0.1000000000 0.1000000000 0.1000000000 0.1000000000 0.1000000000 0.1000000000 0.1000000000 0.1000000000 0.1000000000 0.1000000000 0.1000000000 0.1000000000 0.1000000000 0.1000000000 0.1000000000 0.1000000000 0.1000000000 0.1000000000 0.1000000000 0.1000000000 0.1000000000 0.1000000000 0.1000000000 0.1000000000 0.1000000000 0.1000000000 0.1000000000 0.1000000000 0.1000000000 0.1000000000 0.1000000000 0.1000000000 0.1000000000 0.1000000000 0.1000000000 0.1000000000 0.1000000000 0.1000000000 0.1000000000 0.1000000000 0.1000000000 0.1000000000 0.1000000000 0.1000000000 0.1000000000 0.1000000000 0.1000000000 0.1000000000 0.1000000000 0.1000000000 0.1000000000 0.1000000000 0.1000000000 0.1000000000 0.1000000000 0.1000000000 0.1000000000 0.10000000