<?xml version="1.0"?>
<VTKFile type="UnstructuredGrid" version="0.1" byte_order="LittleEndian">
  <UnstructuredGrid>
    <FieldData>
      <DataArray type="Float32" Name="TIME"  NumberOfTuples="1" format="ascii"> 0.1000000000 </DataArray>
      <DataArray type="Int32"   Name="STEP"  NumberOfTuples="1" format="ascii"> 25000 </DataArray>
    </FieldData>
    <Piece NumberOfPoints="11600" NumberOfCells="11600">
      <Points>
        <DataArray type="Float32" NumberOfComponents="3" format="ascii">
 -0.0213069846 -0.0314355863 0.0000000000 0.1786927445 -0.0311476406 0.0000000000 0.3786925120 -0.0308597437 0.0000000000 0.5786925412 -0.0305717835 0.0000000000 0.7786923420 -0.0302834086 0.0000000000 0.9786921199 -0.0299950034 0.0000000000 1.1786918935 -0.0297067114 0.0000000000 1.3786916836 -0.0294185676 0.0000000000 1.5786918989 -0.0291307476 0.0000000000 1.7786920023 -0.0288431614 0.0000000000 1.9786922712 -0.0285556381 0.0000000000 2.1786926115 -0.0282681096 0.0000000000 2.3786929436 -0.0279805721 0.0000000000 2.5786951081 -0.0276926549 0.0000000000 2.7786952219 -0.0274044295 0.0000000000 2.9786953072 -0.0271165534 0.0000000000 3.1786954078 -0.0268287958 0.0000000000 3.3786954073 -0.0265410199 0.0000000000 3.5786957696 -0.0262531831 0.0000000000 3.7786957291 -0.0259654318 0.0000000000 3.9786956491 -0.0256777624 0.0000000000 4.1786955780 -0.0253903815 0.0000000000 4.3786955779 -0.0251030357 0.0000000000 4.5786959471 -0.0248155048 0.0000000000 4.7786957470 -0.0245277954 0.0000000000 4.9786955286 -0.0242400064 0.0000000000 5.1786953405 -0.0239521081 0.0000000000 5.3786951541 -0.0236639464 0.0000000000 5.5786948038 -0.0233755152 0.0000000000 5.7786945101 -0.0230870645 0.0000000000 5.9786941607 -0.0227985935 0.0000000000 6.1786937436 -0.0225101219 0.0000000000 6.3786932634 -0.0222217542 0.0000000000 6.5786924623 -0.0219336653 0.0000000000 6.7786919194 -0.0216458521 0.0000000000 6.9786913969 -0.0213582216 0.0000000000 7.1786909181 -0.0210707766 0.0000000000 7.3786905126 -0.0207834648 0.0000000000 7.5786900802 -0.0204963596 0.0000000000 7.7786898308 -0.0202093967 0.0000000000 7.9786896755 -0.0199225352 0.0000000000 8.1786897462 -0.0196357336 0.0000000000 8.3786899573 -0.0193490038 0.0000000000 8.5786920185 -0.0190620068 0.0000000000 8.7786926008 -0.0187749106 0.0000000000 8.9786935720 -0.0184878936 0.0000000000 9.1786947401 -0.0182007402 0.0000000000 9.3786958067 -0.0179137007 0.0000000000 9.5787027778 -0.0176258735 0.0000000000 9.7787040409 -0.0173374340 0.0000000000 9.9787057964 -0.0170492120 0.0000000000 10.1787076226 -0.0167606814 0.0000000000 10.3787091273 -0.0164723068 0.0000000000 10.5787175114 -0.0161827222 0.0000000000 10.7787185992 -0.0158918122 0.0000000000 10.9787199264 -0.0156012686 0.0000000000 11.1787212592 -0.0153107032 0.0000000000 11.3787223646 -0.0150202286 0.0000000000 11.5787287904 -0.0147288297 0.0000000000 11.7787299421 -0.0144360840 0.0000000000 11.9787313191 -0.0141433782 0.0000000000 12.1787326777 -0.0138505479 0.0000000000 12.3787337160 -0.0135577467 0.0000000000 12.5787390646 -0.0132638802 0.0000000000 12.7787396854 -0.0129695755 0.0000000000 12.9787448407 -0.0126747866 0.0000000000 13.1787455445 -0.0123787828 0.0000000000 13.3787461991 -0.0120828451 0.0000000000 13.5787491409 -0.0117856613 0.0000000000 13.7787493976 -0.0114881683 0.0000000000 13.9787535666 -0.0111883039 0.0000000000 14.1800059004 -0.0101087940 0.0000000000 14.3800055441 -0.0100080405 0.0000000000 14.5800044564 -0.0099073776 0.0000000000 14.7800036763 -0.0098071219 0.0000000000 14.9800021562 -0.0097071467 0.0000000000 15.1800012416 -0.0096075308 0.0000000000 15.3800002935 -0.0095080449 0.0000000000 15.5799986680 -0.0094088823 0.0000000000 15.7799978345 -0.0093099532 0.0000000000 15.9799964986 -0.0092110465 0.0000000000 16.1799957729 -0.0091124000 0.0000000000 16.3799951138 -0.0090138951 0.0000000000 16.5799944942 -0.0089153853 0.0000000000 16.7799938538 -0.0088169056 0.0000000000 16.9799926877 -0.0087186507 0.0000000000 17.1799920627 -0.0086208213 0.0000000000 17.3799914958 -0.0085230586 0.0000000000 17.5799909502 -0.0084254048 0.0000000000 17.7799904121 -0.0083278414 0.0000000000 17.9799893087 -0.0082304272 0.0000000000 18.1799886816 -0.0081332934 0.0000000000 18.3799881798 -0.0080363166 0.0000000000 18.5799878577 -0.0079392897 0.0000000000 18.7799876098 -0.0078420256 0.0000000000 18.9799872281 -0.0077444121 0.0000000000 19.1799870266 -0.0076462588 0.0000000000 19.3799868384 -0.0075476760 0.0000000000 19.5799867515 -0.0074488873 0.0000000000 19.7799867496 -0.0073500824 0.0000000000 0.0784434658 0.1419133633 0.0000000000 0.2784432174 0.1422012808 0.0000000000 0.4784429663 0.1424891890 0.0000000000 0.6784427283 0.1427773697 0.0000000000 0.8784425211 0.1430657255 0.0000000000 1.0784423647 0.1433540393 0.0000000000 1.2784422971 0.1436422368 0.0000000000 1.4784424554 0.1439302091 0.0000000000 1.6784427383 0.1442178753 0.0000000000 1.8784430122 0.1445054070 0.0000000000 2.0784433857 0.1447929103 0.0000000000 2.2784438772 0.1450804264 0.0000000000 2.4784446882 0.1453680530 0.0000000000 2.6784454475 0.1456562243 0.0000000000 2.8784458548 0.1459442611 0.0000000000 3.0784461142 0.1462320900 0.0000000000 3.2784462734 0.1465198891 0.0000000000 3.4784464707 0.1468077137 0.0000000000 3.6784466131 0.1470955116 0.0000000000 3.8784466452 0.1473832685 0.0000000000 4.0784466761 0.1476708438 0.0000000000 4.2784467010 0.1479582261 0.0000000000 4.4784467339 0.1482456652 0.0000000000 4.6784466406 0.1485333157 0.0000000000 4.8784463638 0.1488210633 0.0000000000 5.0784460398 0.1491089142 0.0000000000 5.2784457201 0.1493969576 0.0000000000 5.4784453787 0.1496852400 0.0000000000 5.6784450346 0.1499736768 0.0000000000 5.8784446875 0.1502621562 0.0000000000 6.0784442994 0.1505506332 0.0000000000 6.2784438752 0.1508390499 0.0000000000 6.4784434078 0.1511273034 0.0000000000 6.6784429321 0.1514152310 0.0000000000 6.8784425041 0.1517029486 0.0000000000 7.0784421248 0.1519904757 0.0000000000 7.2784417968 0.1522778265 0.0000000000 7.4784415282 0.1525650233 0.0000000000 7.6784413217 0.1528520427 0.0000000000 7.8784412094 0.1531389612 0.0000000000 8.0784412856 0.1534257345 0.0000000000 8.2784416262 0.1537124457 0.0000000000 8.4784424327 0.1539992220 0.0000000000 8.6784434834 0.1542862382 0.0000000000 8.8784444678 0.1545732458 0.0000000000 9.0784456654 0.1548602882 0.0000000000 9.2784472617 0.1551474407 0.0000000000 9.4784499958 0.1554345653 0.0000000000 9.6784528725 0.1557229612 0.0000000000 9.8784549384 0.1560111575 0.0000000000 10.0784569085 0.1562995058 0.0000000000 10.2784591308 0.1565880458 0.0000000000 10.4784623055 0.1568767017 0.0000000000 10.6784653395 0.1571674063 0.0000000000 10.8784671969 0.1574580113 0.0000000000 11.0784688124 0.1577485249 0.0000000000 11.2784704911 0.1580390963 0.0000000000 11.4784729047 0.1583298424 0.0000000000 11.6784753131 0.1586221418 0.0000000000 11.8784769692 0.1589147570 0.0000000000 12.0784784555 0.1592074900 0.0000000000 12.2784800031 0.1595003868 0.0000000000 12.4784822127 0.1597934807 0.0000000000 12.6784844876 0.1600877766 0.0000000000 12.8784867021 0.1603821151 0.0000000000 13.0784886284 0.1606777660 0.0000000000 13.2784897417 0.1609737194 0.0000000000 13.4784908247 0.1612701686 0.0000000000 13.6784917088 0.1615676106 0.0000000000 13.8784921193 0.1618654049 0.0000000000 14.0799192519 0.1630458537 0.0000000000 14.2799188490 0.1631467347 0.0000000000 14.4799181612 0.1632475706 0.0000000000 14.6799173145 0.1633480366 0.0000000000 14.8799163670 0.1634481861 0.0000000000 15.0799153967 0.1635479331 0.0000000000 15.2799144543 0.1636474979 0.0000000000 15.4799134406 0.1637468387 0.0000000000 15.6799124358 0.1638458327 0.0000000000 15.8799114983 0.1639447386 0.0000000000 16.0799106956 0.1640434527 0.0000000000 16.2799100286 0.1641420220 0.0000000000 16.4799094046 0.1642405235 0.0000000000 16.6799087888 0.1643390298 0.0000000000 16.8799081234 0.1644374138 0.0000000000 17.0799075076 0.1645353800 0.0000000000 17.2799069777 0.1646331547 0.0000000000 17.4799064995 0.1647308592 0.0000000000 17.6799060071 0.1648284696 0.0000000000 17.8799053705 0.1649260285 0.0000000000 18.0799047104 0.1650232717 0.0000000000 18.2799041630 0.1651203284 0.0000000000 18.4799037038 0.1652173341 0.0000000000 18.6799032681 0.1653145563 0.0000000000 18.8799027677 0.1654120561 0.0000000000 19.0799022513 0.1655099926 0.0000000000 19.2799018074 0.1656083272 0.0000000000 19.4799014758 0.1657069385 0.0000000000 19.6799013182 0.1658056047 0.0000000000 19.8799013236 0.1659042968 0.0000000000 -0.0218058325 0.3149743014 0.0000000000 0.1781938822 0.3152623544 0.0000000000 0.3781935944 0.3155503083 0.0000000000 0.5781932547 0.3158383509 0.0000000000 0.7781930046 0.3161265424 0.0000000000 0.9781928063 0.3164147982 0.0000000000 1.1781927756 0.3167030020 0.0000000000 1.3781928287 0.3169910693 0.0000000000 1.5781934628 0.3172788336 0.0000000000 1.7781936869 0.3175664462 0.0000000000 1.9781940289 0.3178539372 0.0000000000 2.1781944221 0.3181414406 0.0000000000 2.3781947875 0.3184290161 0.0000000000 2.5781958815 0.3187168768 0.0000000000 2.7781962443 0.3190048961 0.0000000000 2.9781966497 0.3192928340 0.0000000000 3.1781969226 0.3195806834 0.0000000000 3.3781970756 0.3198685358 0.0000000000 3.5781976010 0.3201564338 0.0000000000 3.7781976205 0.3204442299 0.0000000000 3.9781976397 0.3207319435 0.0000000000 4.1781976904 0.3210194905 0.0000000000 4.3781976812 0.3213069732 0.0000000000 4.5781976369 0.3215945311 0.0000000000 4.7781973054 0.3218822526 0.0000000000 4.9781969185 0.3221700532 0.0000000000 5.1781965516 0.3224580157 0.0000000000 5.3781961707 0.3227461352 0.0000000000 5.5781957266 0.3230345044 0.0000000000 5.7781953592 0.3233229483 0.0000000000 5.9781949758 0.3236114318 0.0000000000 6.1781945856 0.3238998602 0.0000000000 6.3781942155 0.3241881705 0.0000000000 6.5781937831 0.3244762494 0.0000000000 6.7781934554 0.3247640736 0.0000000000 6.9781931643 0.3250516809 0.0000000000 7.1781929117 0.3253390973 0.0000000000 7.3781926971 0.3256263677 0.0000000000 7.5781925808 0.3
[...]
      <PointData Scalars="radius">
        <DataArray type="Float32" Name="radius" format="ascii">
 0.1000000000 0.1000000000 0.1000000000 0.1000000000 0.1000000000 0.1000000000 0.1000000000 0.1000000000 0.1000000000 0.1000000000 0.1000000000 0.1000000000 0.1000000000 0.1000000000 0.1000000000 0.1000000000 0.1000000000 0.1000000000 0.1000000000 0.1000000000 0.1000000000 0.1000000000 0.1000000000 0.1000000000 0.1000000000 0.1000000000 0.1000000000 0.1000000000 0.1000000000 0.1000000000 0.1000000000 0.1000000000 0.1000000000 0.1000000000 0.1000000000 0.1000000000 0.1000000000 0.1000000000 0.1000000000 0.1000000000 0.1000000000 0.1000000000 0.1000000000 0.1000000000 0.1000000000 0.1000000000 0.1000000000 0.1000000000 0.1000000000 0.1000000000 0.1000000000 0.1000000000 0.1000000000 0.1000000000 0.1000000000 0.1000000000 0.1000000000 0.1000000000 0.1000000000 0.1000000000 0.1000000000 0.1000000000 0.1000000000 0.1000000000 0.1000000000 0.1000000000 0.1000000000 0.1000000000 0.1000000000 0.1000000000 0.1000000000 0.1000000000 0.1000000000 0.1000000000 0.1000000000 0.1000000000 0.1000000000 0.1000000000 0.1000000000 0.1000000000 0.1000000000 0.1000000000 0.1000000000 0.1000000000 0.1000000000 0.1000000000 0.1000000000 0.1000000000 0.1000000000 0.1000000000 0.1000000000 0.1000000000 0.1000000000 0.1000000000 0.1000000000 0.1000000000 0.1000000000 0.1000000000 0.1000000000 0.1000000000 0.1000000000 0.1000000000 0.1000000000 0.1000000000 0.1000000000 0.1000000000 0.1000000000 0.1000000000 0.1000000000 0.1000000000 0.1000000000 0.1000000000 0.1000000000 0.1000000000 0.1000000000 0.1000000000 0.1000000000 0.1000000000 0.1000000000 0.1000000000 0.1000000000 0.1000000000 0.1000000000 0.1000000000 0.1000000000 0.1000000000 0.1000000000 0.1000000000 0.1000000000 0.1000000000 0.1000000000 0.1000000000 0.1000000000 0.1000000000 0.1000000000 0.1000000000 0.1000000000 0.1000000000 0.1000000000 0.1000000000 0.1000000000 0.1000000000 0.1000000000 0.1000000000 0.1000000000 0.1000000000 0.1000000000 0.1000000000 0.1000000000 0.1000000000 0.1000000000 0.1000000000 0.1000000000 0.1000000000 0.1000000000 0.1000000000 0.1000000000 0.1000000000 0.1000000000 0.1000000000 0.1000000000 0.1000000000 0.1000000000 0.1000000000 0.1000000000 0.1000000000 0.1000000000 0.1000000000 0.1000000000 0.1000000000 0.1000000000 0.1000000000 0.1000000000 0.1000000000 0.1000000000 0.1000000000 0.1000000000 0.1000000000 0.1000000000 0.1000000000 0.1000000000 0.1000000000 0.1000000000 0.1000000000 0.1000000000 0.1000000000 0.1000000000 0.1000000000 0.1000000000 0.1000000000 0.1000000000 0.1000000000 0.1000000000 0.1000000000 0.1000000000 0.1000000000 0.1000000000 0.1000000000 0.1000000000 0.1000000000 0.1000000000 0.1000000000 0.1000000000 0.1000000000 0.1000000000 0.1000000000 0.1000000000 0.1000000000 0.1000000000 0.1000000000 0.1000000000 0.1000000000 0.1000000000 0.1000000000 0.1000000000 0.1000000000 0.1000000000 0.1000000000 0.1000000000 0.1000000000 0.1000000000 0.1000000000 0.1000000000 0.1000000000 0.1000000000 0.1000000000 0.1000000000 0.1000000000 0.1000000000 0.1000000000 0.1000000000 0.1000000000 0.1000000000 0.1000000000 0.1000000000 0.1000000000 0.1000000000 0.1000000000 0.1000000000 0.1000000000 0.1000000000 0.1000000000 0.1000000000 0.1000000000 0.1000000000 0.1000000000 0.1000000000 0.1000000000 0.1000000000 0.1000000000 0.1000000000 0.1000000000 0.1000000000 0.1000000000 0.1000000000 0.1000000000 0.1000000000 0.1000000000 0.1000000000 0.1000000000 0.1000000000 0.1000000000 0.1000000000 0.1000000000 0.1000000000 0.1000000000 0.1000000000 0.1000000000 0.1000000000 0.1000000000 0.1000000000 0.1000000000 0.1000000000 0.1000000000 0.1000000000 0.1000000000 0.1000000000 0.1000000000 0.1000000000 0.1000000000 0.1000000000 0.1000000000 0.1000000000 0.1000000000 0.1000000000 0.1000000000 0.1000000000 0.1000000000 0.1000000000 0.1000000000 0.1000000000 0.1000000000 0.1000000000 0.1000000000 0.1000000000 0.1000000000 0.1000000000 0.1000000000 0.1000000000 0.1000000000 0.1000000000 0.1000000000 0.1000000000 0.1000000000 0.1000000000 0.1000000000 0.1000000000 0.1000000000 0.1000000000 0.1000000000 0.1000000000 0.1000000000 0.1000000000 0.1000000000 0.1000000000 0.1000000000 0.1000000000 0.1000000000 0.1000000000 0.1000000000 0.1000000000 0.1000000000 0.1000000000 0.1000000000 0.1000000000 0.1000000000 0.1000000000 0.1000000000 0.1000000000 0.1000000000 0.1000000000 0.1000000000 0.1000000000 0.1000000000 0.1000000000 0.1000000000 0.1000000000 0.1000000000 0.1000000000 0.1000000000 0.1000000000 0.1000000000 0.1000000000 0.1000000000 0.1000000000 0.1000000000 0.1000000000 0.1000000000 0.1000000000 0.1000000000 0.1000000000 0.1000000000 0.1000000000 0.1000000000 0.1000000000 0.1000000000 0.1000000000 0.1000000000 0.1000000000 0.1000000000 0.1000000000 0.1000000000 0.1000000000 0.1000000000 0.1000000000 0.1000000000 0.1000000000 0.1000000000 0.1000000000 0.1000000000 0.1000000000 0.1000000000 0.1000000000 0.1000000000 0.1000000000 0.1000000000 0.1000000000 0.1000000000 0.1000000000 0.1000000000 0.1000000000 0.1000000000 0.1000000000 0.1000000000 0.1000000000 0.1000000000 0.1000000000 0.1000000000 0.1000000000 0.1000000000 0.1000000000 0.1000000000 0.1000000000 0.1000000000 0.1000000000 0.1000000000 0.1000000000 0.1000000000 0.1000000000 0.1000000000 0.1000000000 0.1000000000 0.1000000000 0.1000000000 0.1000000000 0.1000000000 0.1000000000 0.1000000000 0.1000000000 0.1000000000 0.1000000000 0.1000000000 0.1000000000 0.1000000000 0.1000000000 0.1000000000 0.1000000000 0.1000000000 0.1000000000 0.1000000000 0.1000000000 0.1000000000 0.1000000000 0.1000000000 0.1000000000 0.1000000000 0.1000000000 0.1000000000 0.1000000000 0.1000000000 0.1000000000 0.1000000000 0.1000000000 0.1000000000 0.1000000000 0.1000000000 0.1000000000 0.1000000000 0.1000000000 0.1000000000 0.1000000000 0.1000000000 0.1000000000 0.1000000000 0.1000000000 0.1000000000 0.1000000000 0.1000000000 0.1000000000 0.1000000000 0.1000000000 0.1000000000 0.1000000000 0.1000000000 0.1000000000 0.1000000000 0.1000000000 0.1000000000 0.1000000000 0.1000000000 0.1000000000 0.1000000000 0.1000000000 0.1000000000 0.1000000000 0.1000000000 0.1000000000 0.1000000000 0.1000000000 0.1000000000 0.1000000000 0.1000000000 0.1000000000 0.1000000000 0.1000000000 0.1000000000 0.1000000000 0.1000000000 0.1000000000 0.1000000000 0.1000000000 0.1000000000 0.1000000000 0.1000000000 0.1000000000 0.1000000000 0.1000000000 0.1000000000 0.1000000000 0.1000000000 0.1000000000 0.1000000000 0.1000000000 0.1000000000 0.1000000000 0.1000000000 0.1000000000 0.1000000000 0.1000000000 0.1000000000 0.1000000000 0.1000000000 0.1000000000 0.1000000000 0.1000000000 0.1000000000 0.1000000000 0.1000000000 0.1000000000 0.1000000000 0.1000000000 0.1000000000 0.1000000000 0.1000000000 0.1000000000 0.1000000000 0.1000000000 0.1000000000 0.1000000000 0.1000000000 0.1000000000 0.1000000000 0.1000000000 0.1000000000 0.1000000000 0.1000000000 0.1000000000 0.1000000000 0.1000000000 0.1000000000 0.1000000000 0.1000000000 0.1000000000 0.1000000000 0.1000000000 0.1000000000 0.1000000000 0.1000000000 0.1000000000 0.1000000000 0.1000000000 0.1000000000 0.1000000000 0.1000000000 0.1000000000 0.1000000000 0.1000000000 0.1000000000 0.1000000000 0.1000000000 0.1000000000 0.1000000000 0.1000000000 0.1000000000 0.1000000000 0.1000000000 0.1000000000 0.1000000000 0.1000000000 0.1000000000 0.1000000000 0.1000000000 0.1000000000 0.1000000000 0.1000000000 0.1000000000 0.1000000000 0.1000000000 0.1000000000 0.1000000000 0.1000000000 0.1000000000 0.1000000000 0.1000000000 0.1000000000 0.1000000000 0.1000000000 0.1000000000 0.1000000000 0.1000000000 0.1000000000 0.1000000000 0.1000000000 0.1000000000 0.1000000000 0.1000000000 0.1000000000 0.1000000000 0.1000000000 0.1000000000 0.1000000000 0.1000000000 0.1000000000 0.1000000000 0.1000000000 0.1000000000 0.1000000000 0.1000000000 0.1000000000 0.1000000000 0.1000000000 0.1000000000 0.1000000000 0.1000000000 0.1000000000 0.1000000000 0.1000000000 0.1000000000 0.1000000000 0.1000000000 0.1000000000 0.1000000000 0.1000000000 0.1000000000 0.1000000000 0.1000000000 0.1000000000 0.1000000000 0.1000000000 0.1000000000 0.1000000000 0.1000000000 0.1000000000 0.1000000000 0.1000000000 0.1000000000 0.1000000000 0.1000000000 0.1000000000 0.1000000000 0.1000000000 0.1000000000 0.1000000000 0.1000000000 0.1000000000 0.1000000000 0.1000000000 0.1000000000 0.1000000000 0.1000000000 0.1000000000 0.1000000000 0.1000000000 0.1000000000 0.1000000000 0.1000000000 0.1000000000 0.1000000000 0.1000000000 0.1000000000 0.1000000000 0.1000000000 0.1000000000 0.1000000000 0.1000000000 0.1000000000 0.1000000000 0.1000000000 0.1000000000 0.1000000000 0.1000000000 0.1000000000 0.1000000000 0.1000000000 0.1000000000 0.1000000000 0.1000000000 0.1000000000 0.1000000000 0.1000000000 0.1000000000 0.1000000000 0.1000000000 0.1000000000 0.1000000000 0.1000000000 0.1000000000 0.1000000000 0.1000000000 0.1000000000 0.1000000000 0.1000000000 0.1000000000 0.1000000000 0.1000000000 0.1000000000 0.1000000000 0.1000000000 0.1000000000 0.1000000000 0.1000000000 0.1000000000 0.1000000000 0.1000000000 0.1000000000 0.1000000000 0.1000000000 0.1000000000 0.1000000000 0.1000000000 0.1000000000 0.1000000000 0.1000000000 0.1000000000 0.1000000000 0.1000000000 0.1000000000 0.1000000000 0.1000000000 0.1000000000 0.1000000000 0.1000000000 0.1000000000 0.1000000000 0.1000000000 0.1000000000 0.1000000000 0.1000000000 0.1000000000 0.1000000000 0.1000000000 0.1000000000 0.1000000000 0.1000000000 0.1000000000 0.1000000000 0.1000000000 0.1000000000 0.1000000000 0.1000000000 0.1000000000 0.1000000000 0.1000000000 0.1000000000 0.1000000000 0.1000000000 0.1000000000 0.1000000000 0.1000000000 0.1000000000 0.1000000000 0.1000000000 0.1000000000 0.1000000000 0.1000000000 0.1000000000 0.1000000000 0.1000000000 0.1000000000 0.1000000000 0.1000000000 0.1000000000 0.1000000000 0.1000000000 0.1000000000 0.1000000000 0.1000000000 0.1000000000 0.1000000000 0.1000000000 0.1000000000 0.1000000000 0.1000000000 0.1000000000 0.1000000000 0.1000000000 0.1000000000 0.1000000000 0.1000000000 0.1000000000 0.1000000000 0.1000000000 0.1000000000 0.1000000000 0.1000000000 0.1000000000 0.1000000000 0.1000000000 0.1000000000 0.1000000000 0.1000000000 0.1000000000 0.1000000000 0.1000000000 0.1000000000 0.1000000000 0.1000000000 0.1000000000 0.1000000000 0.1000000000 0.1000000000 0.1000000000 0.1000000000 0.1000000000 0.1000000000 0.1000000000 0.1000000000 0.1000000000 0.1000000000 0.1000000000 0.1000000000 0.1000000000 0.1000000000 0.1000000000 0.1000000000 0.1000000000 0.1000000000 0.1000000000 0.1000000000 0.1000000000 0.1000000000 0.1000000000 0.1000000000 0.1000000000 0.1000000000 0.1000000000 0.1000000000 0.1000000000 0.1000000000 0.1000000000 0.1000000000 0.1000000000 0.1000000000 0.1000000000 0.1000000000 0.1000000000 0.1000000000 0.1000000000 0.1000000000 0.1000000000 0.1000000000 0.1000000000 0.1000000000 0.1000000000 0.1000000000 0.1000000000 0.1000000000 0.1000000000 0.1000000000 0.1000000000 0.1000000000 0.1000000000 0.1000000000 0.1000000000 0.1000000000 0.1000000000 0.1000000000 0.1000000000 0.1000000000 0.1000000000 0.1000000000 0.1000000000 0.1000000000 0.1000000000 0.1000000000 0.1000000000 0.1000000000 0.1000000000 0.1000000000 0.1000000000 0.1000000000 0.1000000000 0.1000000000 0.1000000000 0.1000000000 0.1000000000 0.1000000000 0.1000000000 0.1000000000 0.1000000000 0.1000000000 0.1000000000 0.1000000000 0.1000000000 0.1000000000 0.1000000000 0.1000000000 0.1000000000 0.1000000000 0.1000000000 0.1000000000 0.1000000000 0.1000000000 0.1000000000 0.1000000000 0.1000000000 0.1000000000 0.1000000000 0.1000000000 0.1000000000 0.1000000000 0.1000000000 0.1000000000 0.1000000000 0.1000000000 0.1000000000 0.1000000000 0.1000000000 0.1000000000 0.1000000000 0.1000000000 0.1000000000 0.1000000000 0.1000000000 0.1000000000 0.1000000000 0.1000000000 0.1000000000 0.1000000000 0.1000000000 0.1000000000 0.1000000000 0.1000000000 0.1000000000 0.1000000000 0.1000000000 0.1000000000 0.1000000000 0.1000000000 0.1000000000 0.1000000000 0.1000000000 0.1000000000 0.1000000000 0.1000000000 0.1000000000 0.1000000000 0.1000000000 0.1000000000 0.1000000000 0.1000000000 0.1000000000 0.1000000000 0.1000000000 0.1000000000 0.1000000000 0.1000000000 0.1000000000 0.1000000000 0.1000000000 0.1000000000 0.1000000000 0.1000000000 0.1000000000 0.1000000000 0.1000000000 0.1000000000 0.1000000000 0.1000000000 0.1000000000 0.1000000000 0.1000000000 0.1000000000 0.1000000000 0.1000000000 0.1000000000 0.1000000000 0.1000000000 0.1000000000 0.1000000000 0.1000000000 0.1000000000 0.1000000000 0.1000000000 0.1000000000 0.1000000000 0.1000000000 0.1000000000 0.1000000000 0.1000000000 0.1000000000 0.1000000000 0.1000000000 0.1000000000 0.1000000000 0.1000000000 0.1000000000 0.1000000000 0.1000000000 0.1000000000 0.1000000000 0.1000000000 0.1000000000 0.1000000000 0.1000000000 0.1000000000 0.1000000000 0.1000000000 0.1000000000 0.1000000000 0.1000000000 0.1000000000 0.1000000000 0.1000000000 0.1000000000 0.1000000000 0.1000000000 0.1000000000 0.1000000000 0.1000000000 0.1000000000 0.1000000000 0.1000000000 0.1000000000 0.1000000000 0.1000000000 0.1000000000 0.1000000000 0.1000000000 0.1000000000 0.1000000000 0.1000000000 0.1000000000 0.1000000000 0.1000000000 0.1000000000 0.1000000000 0.1000000000 0.1000000000 0.1000000000 0.1000000000 0.1000000000 0.1000000000 0.1000000000 0.1000000000 0.1000000000 0.1000000000 0.1000000000 0.1000000000 0.1000000000 0.1000000000 0.1000000000 0.1000000000 0.1000000000 0.1000000000 0.1000000000 0.1000000000 0.1000000000 0.1000000000 0.1000000000 0.1000000000 0.1000000000 0.1000000000 0.1000000000 0.1000000000 0.1000000000 0.1000000000 0.1000000000 0.1000000000 0.1000000000 0.1000000000 0.1000000000 0.1000000000 0.1000000000 0.1000000000 0.1000000000 0.1000000000 0.1000000000 0.1000000000 0.1000000000 0.1000000000 0.1000000000 0.1000000000 0.1000000000 0.1000000000 0.1000000000 0.1000000000 0.1000000000 0.1000000000 0.1000000000 0.1000000000 0.1000000000 0.1000000000 0.1000000000 0.1000000000 0.1000000000 0.1000000000 0.1000000000 0.1000000000 0.1000000000 0.1000000000 0.1000000000 0.1000000000 0.1000000000 0.1000000000 0.1000000000 0.1000000000 0.1000000000 0.1000000000 0.1000000000 0.1000000000 0.1000000000 0.1000000000 0.1000000000 0.1000000000 0.1000000000 0.1000000000 0.1000000000 0.1000000000 0.1000000000 0.1000000000 0.1000000000 0.1000000000 0.1000000000 0.1000000000 0.1000000000 0.1000000000 0.1000000000 0.1000000000 0.1000000000 0.1000000000 0.1000000000 0.1000000000 0.1000000000 0.1000000000 0.1000000000 0.1000000000 0.1000000000 0.1000000000 0.1000000000 0.1000000000 0.1000000000 0.1000000000 0.1000000000 0.1000000000 0.1000000000 0.1000000000 0.1000000000 0.1000000000 0.1000000000 0.1000000000 0.1000000000 0.1000000000 0.1000000000 0.1000000000 0.1000000000 0.1000000000 0.1000000000 0.1000000000 0.1000000000 0.1000000000 0.1000000000 0.1000000000 0.1000000000 0.1000000000 0.1000000000 0.1000000000 0.1000000000 0.1000000000 0.1000000000 0.1000000000 0.1000000000 0.1000000000 0.1000000000 0.1000000000 0.1000000000 0.1000000000 0.1000000000 0.1000000000 0.1000000000 0.1000000000 0.1000000000 0.1000000000 0.1000000000 0.1000000000 0.1000000000 0.1000000000 0.1000000000 0.1000000000 0.1000000000 0.1000000000 0.1000000000 0.1000000000 0.1000000000 0.1000000000 0.1000000000 0.1000000000 0.1000000000 0.1000000000 0.1000000000 0.1000000000 0.1000000000 0.1000000000 0.1000000000 0.1000000000 0.1000000000 0.1000000000 0.1000000000 0.1000000000 0.1000000000 0.1000000000 0.1000000000 0.1000000000 0.1000000000 0.1000000000 0.1000000000 0.1000000000 0.1000000000 0.1000000000 0.1000000000 0.1000000000 0.1000000000 0.1000000000 0.1000000000 0.1000000000 0.1000000000 0.1000000000 0.1000000000 0.1000000000 0.1000000000 0.1000000000 0.1000000000 0.1000000000 0.1000000000 0.1000000000 0.1000000000 0.1000000000 0.1000000000 0.1000000000 0.1000000000 0.1000000000 0.1000000000 0.1000000000 0.1000000000 0.1000000000 0.1000000000 0.1000000000 0.1000000000 0.1000000000 0.1000000000 0.1000000000 0.1000000000 0.1000000000 0.1000000000 0.1000000000 0.1000000000 0.1000000000 0.1000000000 0.1000000000 0.1000000000 0.1000000000 0.1000000000 0.1000000000 0.1000000000 0.1000000000 0.1000000000 0.1000000000 0.1000000000 0.1000000000 0.1000000000 0.1000000000 0.1000000000 0.1000000000 0.1000000000 0.1000000000 0.1000000000 0.1000000000 0.1000000000 0.1000000000 0.1000000000 0.1000000000 0.1000000000 0.1000000000 0.1000000000 0.1000000000 0.1000000000 0.1000000000 0.1000000000 0.1000000000 0.1000000000 0.1000000000 0.1000000000 0.1000000000 0.1000000000 0.1000000000 0.1000000000 0.1000000000 0.1000000000 0.1000000000 0.1000000000 0.1000000000 0.1000000000 0.1000000000 0.1000000000 0.1000000000 0.1000000000 0.1000000000 0.1000000000 0.1000000000 0.1000000000 0.1000000000 0.1000000000 0.1000000000 0.1000000000 0.1000000000 0.1000000000 0.1000000000 0.1000000000 0.1000000000 0.1000000000 0.1000000000 0.1000000000 0.1000000000 0.1000000000 0.1000000000 0.1000000000 0.1000000000 0.1000000000 0.1000000000 0.1000000000 0.1000000000 0.1000000000 0.1000000000 0.1000000000 0.1000000000 0.1000000000 0.1000000000 0.1000000000 0.1000000000 0.1000000000 0.1000000000 0.1000000000 0.1000000000 0.1000000000 0.1000000000 0.1000000000 0.1000000000 0.1000000000 0.1000000000 0.1000000000 0.1000000000 0.1000000000 0.1000000000 0.1000000000 0.1000000000 0.1000000000 0.1000000000 0.1000000000 0.1000000000 0.1000000000 0.1000000000 0.1000000000 0.1000000000 0.1000000000 0.1000000000 0.1000000000 0.1000000000 0.1000000000 0.1000000000 0.1000000000 0.1000000000 0.1000000000 0.1000000000 0.1000000000 0.1000000000 0.1000000000 0.1000000000 0.1000000000 0.1000000000 0.1000000000 0.1000000000 0.1000000000 0.1000000000 0.1000000000 0.1000000000 0.1000000000 0.1000000000 0.1000000000 0.1000000000 0.1000000000 0.1000000000 0.1000000000 0.1000000000 0.1000000000 0.1000000000 0.1000000000 0.1000000000 0.1000000000 0.1000000000 0.1000000000 0.1000000000 0.1000000000 0.1000000000 0.1000000000 0.1000000000 0.1000000000 0.1000000000 0.1000000000 0.1000000000 0.1000000000 0.1000000000 0.1000000000 0.1000000000 0.1000000000 0.1000000000 0.1000000000 0.1000000000 0.1000000000 0.1000000000 0.1000000000 0.1000000000 0.1000000000 0.1000000000 0.1000000000 0.1000000000 0.1000000000 0.1000000000 0.1000000000 0.1000000000 0.1000000000 0.1000000000 0.1000000000 0.1000000000 0.1000000000 0.1000000000 0.1000000000 0.1000000000 0.1000000000 0.1000000000 0.1000000000 0.1000000000 0.1000000000 0.1000000000 0.1000000000 0.1000000000 0.1000000000 0.1000000000 0.1000000000 0.1000000000 0.1000000000 0.1000000000 0.1000000000 0.1000000000 0.1000000000 0.1000000000 0.1000000000 0.1000000000 0.1000000000 0.1000000000 0.1000000000 0.1000000000 0.1000000000 0.1000000000 0.1000000000 0.1000000000 0.1000000000 0.1000000000 0.1000000000 0.1000000000 0.1000000000 0.1000000000 0.1000000000 0.1000000000 0.1000000000 0.1000000000 0.1000000000 0.1000000000 0.1000000000 0.1000000000 0.1000000000 0.1000000000 0.1000000000 0.1000000000 0.1000000000 0.1000000000 0.1000000000 0.1000000000 0.1000000000 0.1000000000 0.1000000000 0.1000000000 0.1000000000 0.1000000000 0.1000000000 0.1000000000 0.1000000000 0.1000000000 0.1000000000 0.1000000000 0.1000000000 0.1000000000 0.1000000000 0.1000000000 0.1000000000 0.1000000000 0.1000000000 0.1000000000 0.1000000000 0.1000000000 0.1000000000 0.1000000000 0.1000000000 0.1000000000 0.1000000000 0.1000000000 0.1000000000 0.1000000000 0.1000000000 0.1000000000 0.1000000000 0.1000000000 0.1000000000 0.1000000000 0.1000000000 0.1000000000 0.1000000000 0.1000000000 0.1000000000 0.1000000000 0.1000000000 0.1000000000 0.1000000000 0.1000000000 0.1000000000 0.1000000000 0.1000000000 0.1000000000 0.1000000000 0.1000000000 0.1000000000 0.1000000000 0.1000000000 0.1000000000 0.1000000000 0.1000000000 0.1000000000 0.1000000000 0.1000000000 0.1000000000 0.1000000000 0.10000000