<?xml version="1.0"?>
<VTKFile type="UnstructuredGrid" version="0.1" byte_order="LittleEndian">
  <UnstructuredGrid>
    <FieldData>
      <DataArray type="Float32" Name="TIME"  NumberOfTuples="1" format="ascii"> 1.7000000000 </DataArray>
      <DataArray type="Int32"   Name="STEP"  NumberOfTuples="1" format="ascii"> 425000 </DataArray>
    </FieldData>
    <Piece NumberOfPoints="11600" NumberOfCells="11600">
      <Points>
        <DataArray type="Float32" NumberOfComponents="3" format="ascii">
 -0.2795581434 -0.5864081510 -0.0000010318 -0.0795839921 -0.5831928221 -0.0000008920 0.1203901622 -0.5799774933 -0.0000007536 0.3203643140 -0.5767621641 -0.0000006232 0.5203384684 -0.5735468347 -0.0000005034 0.7203126210 -0.5703315056 -0.0000003932 0.9202867738 -0.5671161763 -0.0000002955 1.1202609276 -0.5639008472 -0.0000002118 1.3202350800 -0.5606855177 -0.0000001532 1.5202092339 -0.5574701881 -0.0000001225 1.7201833867 -0.5542548586 -0.0000001120 1.9201575397 -0.5510395293 -0.0000001225 2.1201316935 -0.5478241999 -0.0000001514 2.3201058460 -0.5446088704 -0.0000002153 2.5200800000 -0.5413935407 -0.0000002815 2.7200541530 -0.5381782113 -0.0000003486 2.9200283059 -0.5349628817 -0.0000004096 3.1200024598 -0.5317475523 -0.0000004596 3.3199766124 -0.5285322227 -0.0000004891 3.5199507664 -0.5253168931 -0.0000004930 3.7199249191 -0.5221015636 -0.0000004834 3.9198990720 -0.5188862340 -0.0000004625 4.1198732257 -0.5156709046 -0.0000004338 4.3198473783 -0.5124555750 -0.0000003974 4.5198215318 -0.5092402453 -0.0000003584 4.7197956845 -0.5060249158 -0.0000003216 4.9197698372 -0.5028095861 -0.0000002909 5.1197439909 -0.4995942566 -0.0000002695 5.3197181432 -0.4963789270 -0.0000002664 5.5196922969 -0.4931635972 -0.0000002845 5.7196664496 -0.4899482675 -0.0000003146 5.9196406023 -0.4867329378 -0.0000003551 6.1196147559 -0.4835176084 -0.0000004028 6.3195889084 -0.4803022786 -0.0000004568 6.5195630620 -0.4770869488 -0.0000005134 6.7195372147 -0.4738716191 -0.0000005710 6.9195113674 -0.4706562894 -0.0000006286 7.1194855210 -0.4674409599 -0.0000006847 7.3194596736 -0.4642256301 -0.0000007409 7.5194338273 -0.4610103001 -0.0000007801 7.7194079799 -0.4577949702 -0.0000008101 7.9193821326 -0.4545796404 -0.0000008294 8.1193562860 -0.4513643107 -0.0000008390 8.3193304384 -0.4481489809 -0.0000008392 8.5193045918 -0.4449336509 -0.0000008341 8.7192787442 -0.4417183213 -0.0000008305 8.9192528968 -0.4385029916 -0.0000008299 9.1192270504 -0.4352876621 -0.0000008316 9.3192012026 -0.4320723325 -0.0000008406 9.5191753560 -0.4288570027 -0.0000008335 9.7191495083 -0.4256416732 -0.0000008185 9.9191236608 -0.4224263437 -0.0000007929 10.1190978138 -0.4192110141 -0.0000007564 10.3190719659 -0.4159956848 -0.0000006994 10.5190461186 -0.4127803553 -0.0000006355 10.7190202709 -0.4095650262 -0.0000005666 10.9189944230 -0.4063496970 -0.0000004949 11.1189685759 -0.4031343682 -0.0000004228 11.3189427274 -0.3999190395 -0.0000003429 11.5189168801 -0.3967037108 -0.0000002755 11.7188910321 -0.3934883826 -0.0000002095 11.9188651842 -0.3902730546 -0.0000001446 12.1188393373 -0.3870577271 -0.0000000801 12.3188134890 -0.3838423993 -0.0000000079 12.5187876426 -0.3806270718 0.0000000629 12.7187617946 -0.3774117447 0.0000001457 12.9187359479 -0.3741964165 0.0000002305 13.1187101015 -0.3709810893 0.0000003188 13.3186842535 -0.3677657619 0.0000004147 13.5186584092 -0.3645504342 0.0000005096 13.7186325612 -0.3613351045 0.0000006065 13.9431626252 -0.3522028705 0.0000000000 14.1431617643 -0.3527894779 0.0000000000 14.3431609033 -0.3533760849 0.0000000000 14.5431600450 -0.3539626915 0.0000000000 14.7431591842 -0.3545492990 0.0000000000 14.9431583244 -0.3551359057 0.0000000000 15.1431574646 -0.3557225131 0.0000000000 15.3431566039 -0.3563091200 0.0000000000 15.5431557451 -0.3568957271 0.0000000000 15.7431548844 -0.3574823342 0.0000000000 15.9431540250 -0.3580689413 0.0000000000 16.1431531652 -0.3586555480 0.0000000000 16.3986306124 -0.2657048218 -0.0000000174 16.5985945762 -0.2619083449 -0.0000000173 16.7985585386 -0.2581118690 -0.0000000173 16.9985225034 -0.2543153930 -0.0000000172 17.1984864668 -0.2505189173 -0.0000000172 17.3984504302 -0.2467224416 -0.0000000173 17.5984143949 -0.2429259661 -0.0000000173 17.7983783579 -0.2391294907 -0.0000000173 17.9983423225 -0.2353330151 -0.0000000174 18.1983062862 -0.2315365398 -0.0000000175 18.3982702498 -0.2277400645 -0.0000000175 18.5982342151 -0.2239435895 -0.0000000176 18.7981981782 -0.2201471145 -0.0000000177 18.9981621436 -0.2163506389 -0.0000000177 19.1981261074 -0.2125541636 -0.0000000178 19.3980900710 -0.2087576881 -0.0000000178 19.5980540341 -0.2049612125 -0.0000000177 -0.1823556238 -0.4116177917 -0.0000010002 0.0176185278 -0.4084024632 -0.0000008589 0.2175926813 -0.4051871339 -0.0000007215 0.4175668350 -0.4019718048 -0.0000005943 0.6175409877 -0.3987564754 -0.0000004777 0.8175151405 -0.3955411461 -0.0000003731 1.0174892933 -0.3923258167 -0.0000002827 1.2174634469 -0.3891104873 -0.0000002105 1.4174376006 -0.3858951580 -0.0000001656 1.6174117534 -0.3826798285 -0.0000001420 1.8173859063 -0.3794644990 -0.0000001382 2.0173600592 -0.3762491694 -0.0000001536 2.2173342128 -0.3730338398 -0.0000001893 2.4173083665 -0.3698185105 -0.0000002443 2.6172825194 -0.3666031809 -0.0000003048 2.8172566724 -0.3633878513 -0.0000003637 3.0172308254 -0.3601725217 -0.0000004151 3.2172049789 -0.3569571921 -0.0000004528 3.4171791326 -0.3537418628 -0.0000004674 3.6171532855 -0.3505265332 -0.0000004648 3.8171274385 -0.3473112036 -0.0000004494 4.0171015914 -0.3440958739 -0.0000004239 4.2170757447 -0.3408805444 -0.0000003907 4.4170498981 -0.3376652150 -0.0000003518 4.6170240509 -0.3344498854 -0.0000003128 4.8169982037 -0.3312345557 -0.0000002782 5.0169723566 -0.3280192260 -0.0000002519 5.2169465098 -0.3248038965 -0.0000002389 5.4169206632 -0.3215885668 -0.0000002476 5.6168948159 -0.3183732372 -0.0000002719 5.8168689688 -0.3151579075 -0.0000003081 6.0168431217 -0.3119425778 -0.0000003533 6.2168172750 -0.3087272481 -0.0000004047 6.4167914282 -0.3055119184 -0.0000004600 6.6167655810 -0.3022965887 -0.0000005163 6.8167397340 -0.2990812591 -0.0000005722 7.0167138869 -0.2958659294 -0.0000006265 7.2166880401 -0.2926505996 -0.0000006775 7.4166621934 -0.2894352697 -0.0000007189 7.6166363462 -0.2862199399 -0.0000007498 7.8166104990 -0.2830046101 -0.0000007706 8.0165846518 -0.2797892802 -0.0000007813 8.2165588049 -0.2765739503 -0.0000007831 8.4165329581 -0.2733586204 -0.0000007773 8.6165071107 -0.2701432908 -0.0000007701 8.8164812635 -0.2669279611 -0.0000007646 9.0164554161 -0.2637126315 -0.0000007617 9.2164295693 -0.2604973019 -0.0000007601 9.4164037224 -0.2572819721 -0.0000007539 9.6163778750 -0.2540666426 -0.0000007399 9.8163520276 -0.2508513131 -0.0000007171 10.0163261801 -0.2476359836 -0.0000006845 10.2163003329 -0.2444206540 -0.0000006404 10.4162744857 -0.2412053244 -0.0000005841 10.6162486380 -0.2379899952 -0.0000005220 10.8162227905 -0.2347746662 -0.0000004570 11.0161969428 -0.2315593372 -0.0000003906 11.2161710952 -0.2283440083 -0.0000003234 11.4161452478 -0.2251286797 -0.0000002585 11.6161194002 -0.2219133513 -0.0000001968 11.8160935526 -0.2186980234 -0.0000001367 12.0160677047 -0.2154826955 -0.0000000771 12.2160418577 -0.2122673677 -0.0000000158 12.4160160106 -0.2090520407 0.0000000494 12.6159901633 -0.2058367130 0.0000001195 12.8159643164 -0.2026213859 0.0000001973 13.0159384688 -0.1994060586 0.0000002798 13.2159126226 -0.1961907306 0.0000003670 13.4158867758 -0.1929754041 0.0000004587 13.6158609289 -0.1897600756 0.0000005528 13.8436710696 -0.1787052343 0.0000000000 14.0436702107 -0.1792918397 0.0000000000 14.2436693507 -0.1798784466 0.0000000000 14.4436684908 -0.1804650541 0.0000000000 14.6436676308 -0.1810516610 0.0000000000 14.8436667709 -0.1816382682 0.0000000000 15.0436659108 -0.1822248754 0.0000000000 15.2436650507 -0.1828114822 0.0000000000 15.4436641911 -0.1833980898 0.0000000000 15.6436633311 -0.1839846963 0.0000000000 15.8436624714 -0.1845713032 0.0000000000 16.0436616088 -0.1851579125 0.0000000000 16.2953607862 -0.0944291893 -0.0000000169 16.4953247484 -0.0906327123 -0.0000000168 16.6952887125 -0.0868362356 -0.0000000167 16.8952526767 -0.0830397596 -0.0000000167 17.0952166404 -0.0792432838 -0.0000000167 17.2951806042 -0.0754468082 -0.0000000166 17.4951445680 -0.0716503327 -0.0000000166 17.6951085322 -0.0678538569 -0.0000000167 17.8950724964 -0.0640573815 -0.0000000167 18.0950364603 -0.0602609062 -0.0000000167 18.2950004242 -0.0564644310 -0.0000000168 18.4949643882 -0.0526679561 -0.0000000169 18.6949283529 -0.0488714806 -0.0000000169 18.8948923174 -0.0450750055 -0.0000000169 19.0948562813 -0.0412785301 -0.0000000170 19.2948202452 -0.0374820548 -0.0000000170 19.4947842089 -0.0336855794 -0.0000000169 19.6947481716 -0.0298891039 -0.0000000169 -0.2851272569 -0.2400427605 -0.0000011083 -0.0851531048 -0.2368274316 -0.0000009639 0.1148210489 -0.2336121026 -0.0000008218 0.3147952006 -0.2303967734 -0.0000006868 0.5147693545 -0.2271814441 -0.0000005637 0.7147435072 -0.2239661148 -0.0000004523 0.9147176602 -0.2207507855 -0.0000003552 1.1146918138 -0.2175354563 -0.0000002738 1.3146659662 -0.2143201265 -0.0000002149 1.5146401198 -0.2111047974 -0.0000001797 1.7146142729 -0.2078894679 -0.0000001626 1.9145884258 -0.2046741383 -0.0000001636 2.1145625793 -0.2014588089 -0.0000001813 2.3145367319 -0.1982434791 -0.0000002185 2.5145108856 -0.1950281499 -0.0000002682 2.7144850387 -0.1918128203 -0.0000003211 2.9144591918 -0.1885974908 -0.0000003711 3.1144333452 -0.1853821612 -0.0000004126 3.3144074982 -0.1821668316 -0.0000004373 3.5143816517 -0.1789515022 -0.0000004421 3.7143558047 -0.1757361726 -0.0000004330 3.9143299577 -0.1725208430 -0.0000004121 4.1143041110 -0.1693055135 -0.0000003824 4.3142782639 -0.1660901838 -0.0000003449 4.5142524171 -0.1628748543 -0.0000003051 4.7142265701 -0.1596595247 -0.0000002676 4.9142007230 -0.1564441951 -0.0000002369 5.1141748763 -0.1532288654 -0.0000002168 5.3141490288 -0.1500135358 -0.0000002148 5.5141231822 -0.1467982061 -0.0000002325 5.71
[...]
      <PointData Scalars="radius">
        <DataArray type="Float32" Name="radius" format="ascii">
 0.1000000000 0.1000000000 0.1000000000 0.1000000000 0.1000000000 0.1000000000 0.1000000000 0.1000000000 0.1000000000 0.1000000000 0.1000000000 0.1000000000 0.1000000000 0.1000000000 0.1000000000 0.1000000000 0.1000000000 0.1000000000 0.1000000000 0.1000000000 0.1000000000 0.1000000000 0.1000000000 0.1000000000 0.1000000000 0.1000000000 0.1000000000 0.1000000000 0.1000000000 0.1000000000 0.1000000000 0.1000000000 0.1000000000 0.1000000000 0.1000000000 0.1000000000 0.1000000000 0.1000000000 0.1000000000 0.1000000000 0.1000000000 0.1000000000 0.1000000000 0.1000000000 0.1000000000 0.1000000000 0.1000000000 0.1000000000 0.1000000000 0.1000000000 0.1000000000 0.1000000000 0.1000000000 0.1000000000 0.1000000000 0.1000000000 0.1000000000 0.1000000000 0.1000000000 0.1000000000 0.1000000000 0.1000000000 0.1000000000 0.1000000000 0.1000000000 0.1000000000 0.1000000000 0.1000000000 0.1000000000 0.1000000000 0.1000000000 0.1000000000 0.1000000000 0.1000000000 0.1000000000 0.1000000000 0.1000000000 0.1000000000 0.1000000000 0.1000000000 0.1000000000 0.1000000000 0.1000000000 0.1000000000 0.1000000000 0.1000000000 0.1000000000 0.1000000000 0.1000000000 0.1000000000 0.1000000000 0.1000000000 0.1000000000 0.1000000000 0.1000000000 0.1000000000 0.1000000000 0.1000000000 0.1000000000 0.1000000000 0.1000000000 0.1000000000 0.1000000000 0.1000000000 0.1000000000 0.1000000000 0.1000000000 0.1000000000 0.1000000000 0.1000000000 0.1000000000 0.1000000000 0.1000000000 0.1000000000 0.1000000000 0.1000000000 0.1000000000 0.1000000000 0.1000000000 0.1000000000 0.1000000000 0.1000000000 0.1000000000 0.1000000000 0.1000000000 0.1000000000 0.1000000000 0.1000000000 0.1000000000 0.1000000000 0.1000000000 0.1000000000 0.1000000000 0.1000000000 0.1000000000 0.1000000000 0.1000000000 0.1000000000 0.1000000000 0.1000000000 0.1000000000 0.1000000000 0.1000000000 0.1000000000 0.1000000000 0.1000000000 0.1000000000 0.1000000000 0.1000000000 0.1000000000 0.1000000000 0.1000000000 0.1000000000 0.1000000000 0.1000000000 0.1000000000 0.1000000000 0.1000000000 0.1000000000 0.1000000000 0.1000000000 0.1000000000 0.1000000000 0.1000000000 0.1000000000 0.1000000000 0.1000000000 0.1000000000 0.1000000000 0.1000000000 0.1000000000 0.1000000000 0.1000000000 0.1000000000 0.1000000000 0.1000000000 0.1000000000 0.1000000000 0.1000000000 0.1000000000 0.1000000000 0.1000000000 0.1000000000 0.1000000000 0.1000000000 0.1000000000 0.1000000000 0.1000000000 0.1000000000 0.1000000000 0.1000000000 0.1000000000 0.1000000000 0.1000000000 0.1000000000 0.1000000000 0.1000000000 0.1000000000 0.1000000000 0.1000000000 0.1000000000 0.1000000000 0.1000000000 0.1000000000 0.1000000000 0.1000000000 0.1000000000 0.1000000000 0.1000000000 0.1000000000 0.1000000000 0.1000000000 0.1000000000 0.1000000000 0.1000000000 0.1000000000 0.1000000000 0.1000000000 0.1000000000 0.1000000000 0.1000000000 0.1000000000 0.1000000000 0.1000000000 0.1000000000 0.1000000000 0.1000000000 0.1000000000 0.1000000000 0.1000000000 0.1000000000 0.1000000000 0.1000000000 0.1000000000 0.1000000000 0.1000000000 0.1000000000 0.1000000000 0.1000000000 0.1000000000 0.1000000000 0.1000000000 0.1000000000 0.1000000000 0.1000000000 0.1000000000 0.1000000000 0.1000000000 0.1000000000 0.1000000000 0.1000000000 0.1000000000 0.1000000000 0.1000000000 0.1000000000 0.1000000000 0.1000000000 0.1000000000 0.1000000000 0.1000000000 0.1000000000 0.1000000000 0.1000000000 0.1000000000 0.1000000000 0.1000000000 0.1000000000 0.1000000000 0.1000000000 0.1000000000 0.1000000000 0.1000000000 0.1000000000 0.1000000000 0.1000000000 0.1000000000 0.1000000000 0.1000000000 0.1000000000 0.1000000000 0.1000000000 0.1000000000 0.1000000000 0.1000000000 0.1000000000 0.1000000000 0.1000000000 0.1000000000 0.1000000000 0.1000000000 0.1000000000 0.1000000000 0.1000000000 0.1000000000 0.1000000000 0.1000000000 0.1000000000 0.1000000000 0.1000000000 0.1000000000 0.1000000000 0.1000000000 0.1000000000 0.1000000000 0.1000000000 0.1000000000 0.1000000000 0.1000000000 0.1000000000 0.1000000000 0.1000000000 0.1000000000 0.1000000000 0.1000000000 0.1000000000 0.1000000000 0.1000000000 0.1000000000 0.1000000000 0.1000000000 0.1000000000 0.1000000000 0.1000000000 0.1000000000 0.1000000000 0.1000000000 0.1000000000 0.1000000000 0.1000000000 0.1000000000 0.1000000000 0.1000000000 0.1000000000 0.1000000000 0.1000000000 0.1000000000 0.1000000000 0.1000000000 0.1000000000 0.1000000000 0.1000000000 0.1000000000 0.1000000000 0.1000000000 0.1000000000 0.1000000000 0.1000000000 0.1000000000 0.1000000000 0.1000000000 0.1000000000 0.1000000000 0.1000000000 0.1000000000 0.1000000000 0.1000000000 0.1000000000 0.1000000000 0.1000000000 0.1000000000 0.1000000000 0.1000000000 0.1000000000 0.1000000000 0.1000000000 0.1000000000 0.1000000000 0.1000000000 0.1000000000 0.1000000000 0.1000000000 0.1000000000 0.1000000000 0.1000000000 0.1000000000 0.1000000000 0.1000000000 0.1000000000 0.1000000000 0.1000000000 0.1000000000 0.1000000000 0.1000000000 0.1000000000 0.1000000000 0.1000000000 0.1000000000 0.1000000000 0.1000000000 0.1000000000 0.1000000000 0.1000000000 0.1000000000 0.1000000000 0.1000000000 0.1000000000 0.1000000000 0.1000000000 0.1000000000 0.1000000000 0.1000000000 0.1000000000 0.1000000000 0.1000000000 0.1000000000 0.1000000000 0.1000000000 0.1000000000 0.1000000000 0.1000000000 0.1000000000 0.1000000000 0.1000000000 0.1000000000 0.1000000000 0.1000000000 0.1000000000 0.1000000000 0.1000000000 0.1000000000 0.1000000000 0.1000000000 0.1000000000 0.1000000000 0.1000000000 0.1000000000 0.1000000000 0.1000000000 0.1000000000 0.1000000000 0.1000000000 0.1000000000 0.1000000000 0.1000000000 0.1000000000 0.1000000000 0.1000000000 0.1000000000 0.1000000000 0.1000000000 0.1000000000 0.1000000000 0.1000000000 0.1000000000 0.1000000000 0.1000000000 0.1000000000 0.1000000000 0.1000000000 0.1000000000 0.1000000000 0.1000000000 0.1000000000 0.1000000000 0.1000000000 0.1000000000 0.1000000000 0.1000000000 0.1000000000 0.1000000000 0.1000000000 0.1000000000 0.1000000000 0.1000000000 0.1000000000 0.1000000000 0.1000000000 0.1000000000 0.1000000000 0.1000000000 0.1000000000 0.1000000000 0.1000000000 0.1000000000 0.1000000000 0.1000000000 0.1000000000 0.1000000000 0.1000000000 0.1000000000 0.1000000000 0.1000000000 0.1000000000 0.1000000000 0.1000000000 0.1000000000 0.1000000000 0.1000000000 0.1000000000 0.1000000000 0.1000000000 0.1000000000 0.1000000000 0.1000000000 0.1000000000 0.1000000000 0.1000000000 0.1000000000 0.1000000000 0.1000000000 0.1000000000 0.1000000000 0.1000000000 0.1000000000 0.1000000000 0.1000000000 0.1000000000 0.1000000000 0.1000000000 0.1000000000 0.1000000000 0.1000000000 0.1000000000 0.1000000000 0.1000000000 0.1000000000 0.1000000000 0.1000000000 0.1000000000 0.1000000000 0.1000000000 0.1000000000 0.1000000000 0.1000000000 0.1000000000 0.1000000000 0.1000000000 0.1000000000 0.1000000000 0.1000000000 0.1000000000 0.1000000000 0.1000000000 0.1000000000 0.1000000000 0.1000000000 0.1000000000 0.1000000000 0.1000000000 0.1000000000 0.1000000000 0.1000000000 0.1000000000 0.1000000000 0.1000000000 0.1000000000 0.1000000000 0.1000000000 0.1000000000 0.1000000000 0.1000000000 0.1000000000 0.1000000000 0.1000000000 0.1000000000 0.1000000000 0.1000000000 0.1000000000 0.1000000000 0.1000000000 0.1000000000 0.1000000000 0.1000000000 0.1000000000 0.1000000000 0.1000000000 0.1000000000 0.1000000000 0.1000000000 0.1000000000 0.1000000000 0.1000000000 0.1000000000 0.1000000000 0.1000000000 0.1000000000 0.1000000000 0.1000000000 0.1000000000 0.1000000000 0.1000000000 0.1000000000 0.1000000000 0.1000000000 0.1000000000 0.1000000000 0.1000000000 0.1000000000 0.1000000000 0.1000000000 0.1000000000 0.1000000000 0.1000000000 0.1000000000 0.1000000000 0.1000000000 0.1000000000 0.1000000000 0.1000000000 0.1000000000 0.1000000000 0.1000000000 0.1000000000 0.1000000000 0.1000000000 0.1000000000 0.1000000000 0.1000000000 0.1000000000 0.1000000000 0.1000000000 0.1000000000 0.1000000000 0.1000000000 0.1000000000 0.1000000000 0.1000000000 0.1000000000 0.1000000000 0.1000000000 0.1000000000 0.1000000000 0.1000000000 0.1000000000 0.1000000000 0.1000000000 0.1000000000 0.1000000000 0.1000000000 0.1000000000 0.1000000000 0.1000000000 0.1000000000 0.1000000000 0.1000000000 0.1000000000 0.1000000000 0.1000000000 0.1000000000 0.1000000000 0.1000000000 0.1000000000 0.1000000000 0.1000000000 0.1000000000 0.1000000000 0.1000000000 0.1000000000 0.1000000000 0.1000000000 0.1000000000 0.1000000000 0.1000000000 0.1000000000 0.1000000000 0.1000000000 0.1000000000 0.1000000000 0.1000000000 0.1000000000 0.1000000000 0.1000000000 0.1000000000 0.1000000000 0.1000000000 0.1000000000 0.1000000000 0.1000000000 0.1000000000 0.1000000000 0.1000000000 0.1000000000 0.1000000000 0.1000000000 0.1000000000 0.1000000000 0.1000000000 0.1000000000 0.1000000000 0.1000000000 0.1000000000 0.1000000000 0.1000000000 0.1000000000 0.1000000000 0.1000000000 0.1000000000 0.1000000000 0.1000000000 0.1000000000 0.1000000000 0.1000000000 0.1000000000 0.1000000000 0.1000000000 0.1000000000 0.1000000000 0.1000000000 0.1000000000 0.1000000000 0.1000000000 0.1000000000 0.1000000000 0.1000000000 0.1000000000 0.1000000000 0.1000000000 0.1000000000 0.1000000000 0.1000000000 0.1000000000 0.1000000000 0.1000000000 0.1000000000 0.1000000000 0.1000000000 0.1000000000 0.1000000000 0.1000000000 0.1000000000 0.1000000000 0.1000000000 0.1000000000 0.1000000000 0.1000000000 0.1000000000 0.1000000000 0.1000000000 0.1000000000 0.1000000000 0.1000000000 0.1000000000 0.1000000000 0.1000000000 0.1000000000 0.1000000000 0.1000000000 0.1000000000 0.1000000000 0.1000000000 0.1000000000 0.1000000000 0.1000000000 0.1000000000 0.1000000000 0.1000000000 0.1000000000 0.1000000000 0.1000000000 0.1000000000 0.1000000000 0.1000000000 0.1000000000 0.1000000000 0.1000000000 0.1000000000 0.1000000000 0.1000000000 0.1000000000 0.1000000000 0.1000000000 0.1000000000 0.1000000000 0.1000000000 0.1000000000 0.1000000000 0.1000000000 0.1000000000 0.1000000000 0.1000000000 0.1000000000 0.1000000000 0.1000000000 0.1000000000 0.1000000000 0.1000000000 0.1000000000 0.1000000000 0.1000000000 0.1000000000 0.1000000000 0.1000000000 0.1000000000 0.1000000000 0.1000000000 0.1000000000 0.1000000000 0.1000000000 0.1000000000 0.1000000000 0.1000000000 0.1000000000 0.1000000000 0.1000000000 0.1000000000 0.1000000000 0.1000000000 0.1000000000 0.1000000000 0.1000000000 0.1000000000 0.1000000000 0.1000000000 0.1000000000 0.1000000000 0.1000000000 0.1000000000 0.1000000000 0.1000000000 0.1000000000 0.1000000000 0.1000000000 0.1000000000 0.1000000000 0.1000000000 0.1000000000 0.1000000000 0.1000000000 0.1000000000 0.1000000000 0.1000000000 0.1000000000 0.1000000000 0.1000000000 0.1000000000 0.1000000000 0.1000000000 0.1000000000 0.1000000000 0.1000000000 0.1000000000 0.1000000000 0.1000000000 0.1000000000 0.1000000000 0.1000000000 0.1000000000 0.1000000000 0.1000000000 0.1000000000 0.1000000000 0.1000000000 0.1000000000 0.1000000000 0.1000000000 0.1000000000 0.1000000000 0.1000000000 0.1000000000 0.1000000000 0.1000000000 0.1000000000 0.1000000000 0.1000000000 0.1000000000 0.1000000000 0.1000000000 0.1000000000 0.1000000000 0.1000000000 0.1000000000 0.1000000000 0.1000000000 0.1000000000 0.1000000000 0.1000000000 0.1000000000 0.1000000000 0.1000000000 0.1000000000 0.1000000000 0.1000000000 0.1000000000 0.1000000000 0.1000000000 0.1000000000 0.1000000000 0.1000000000 0.1000000000 0.1000000000 0.1000000000 0.1000000000 0.1000000000 0.1000000000 0.1000000000 0.1000000000 0.1000000000 0.1000000000 0.1000000000 0.1000000000 0.1000000000 0.1000000000 0.1000000000 0.1000000000 0.1000000000 0.1000000000 0.1000000000 0.1000000000 0.1000000000 0.1000000000 0.1000000000 0.1000000000 0.1000000000 0.1000000000 0.1000000000 0.1000000000 0.1000000000 0.1000000000 0.1000000000 0.1000000000 0.1000000000 0.1000000000 0.1000000000 0.1000000000 0.1000000000 0.1000000000 0.1000000000 0.1000000000 0.1000000000 0.1000000000 0.1000000000 0.1000000000 0.1000000000 0.1000000000 0.1000000000 0.1000000000 0.1000000000 0.1000000000 0.1000000000 0.1000000000 0.1000000000 0.1000000000 0.1000000000 0.1000000000 0.1000000000 0.1000000000 0.1000000000 0.1000000000 0.1000000000 0.1000000000 0.1000000000 0.1000000000 0.1000000000 0.1000000000 0.1000000000 0.1000000000 0.1000000000 0.1000000000 0.1000000000 0.1000000000 0.1000000000 0.1000000000 0.1000000000 0.1000000000 0.1000000000 0.1000000000 0.1000000000 0.1000000000 0.1000000000 0.1000000000 0.1000000000 0.1000000000 0.1000000000 0.1000000000 0.1000000000 0.1000000000 0.1000000000 0.1000000000 0.1000000000 0.1000000000 0.1000000000 0.1000000000 0.1000000000 0.1000000000 0.1000000000 0.1000000000 0.1000000000 0.1000000000 0.1000000000 0.1000000000 0.1000000000 0.1000000000 0.1000000000 0.1000000000 0.1000000000 0.1000000000 0.1000000000 0.1000000000 0.1000000000 0.1000000000 0.1000000000 0.1000000000 0.1000000000 0.1000000000 0.1000000000 0.1000000000 0.1000000000 0.1000000000 0.1000000000 0.1000000000 0.1000000000 0.1000000000 0.1000000000 0.1000000000 0.1000000000 0.1000000000 0.1000000000 0.1000000000 0.1000000000 0.1000000000 0.1000000000 0.1000000000 0.1000000000 0.1000000000 0.1000000000 0.1000000000 0.1000000000 0.1000000000 0.1000000000 0.1000000000 0.1000000000 0.1000000000 0.1000000000 0.1000000000 0.1000000000 0.1000000000 0.1000000000 0.1000000000 0.1000000000 0.1000000000 0.1000000000 0.1000000000 0.1000000000 0.1000000000 0.1000000000 0.1000000000 0.1000000000 0.1000000000 0.1000000000 0.1000000000 0.1000000000 0.1000000000 0.1000000000 0.1000000000 0.1000000000 0.1000000000 0.1000000000 0.1000000000 0.1000000000 0.1000000000 0.1000000000 0.1000000000 0.1000000000 0.1000000000 0.1000000000 0.1000000000 0.1000000000 0.1000000000 0.1000000000 0.1000000000 0.1000000000 0.1000000000 0.1000000000 0.1000000000 0.1000000000 0.1000000000 0.1000000000 0.1000000000 0.1000000000 0.1000000000 0.1000000000 0.1000000000 0.1000000000 0.1000000000 0.1000000000 0.1000000000 0.1000000000 0.1000000000 0.1000000000 0.1000000000 0.1000000000 0.1000000000 0.1000000000 0.1000000000 0.1000000000 0.1000000000 0.1000000000 0.1000000000 0.1000000000 0.1000000000 0.1000000000 0.1000000000 0.1000000000 0.1000000000 0.1000000000 0.1000000000 0.1000000000 0.1000000000 0.1000000000 0.1000000000 0.1000000000 0.1000000000 0.1000000000 0.1000000000 0.1000000000 0.1000000000 0.1000000000 0.1000000000 0.1000000000 0.1000000000 0.1000000000 0.1000000000 0.1000000000 0.1000000000 0.1000000000 0.1000000000 0.1000000000 0.1000000000 0.1000000000 0.1000000000 0.1000000000 0.1000000000 0.1000000000 0.1000000000 0.1000000000 0.1000000000 0.1000000000 0.1000000000 0.1000000000 0.1000000000 0.1000000000 0.1000000000 0.1000000000 0.1000000000 0.1000000000 0.1000000000 0.1000000000 0.1000000000 0.1000000000 0.1000000000 0.1000000000 0.1000000000 0.1000000000 0.1000000000 0.1000000000 0.1000000000 0.1000000000 0.1000000000 0.1000000000 0.1000000000 0.1000000000 0.1000000000 0.1000000000 0.1000000000 0.1000000000 0.1000000000 0.1000000000 0.1000000000 0.1000000000 0.1000000000 0.1000000000 0.1000000000 0.1000000000 0.1000000000 0.1000000000 0.1000000000 0.1000000000 0.1000000000 0.1000000000 0.1000000000 0.1000000000 0.1000000000 0.1000000000 0.1000000000 0.1000000000 0.1000000000 0.1000000000 0.1000000000 0.1000000000 0.1000000000 0.1000000000 0.1000000000 0.1000000000 0.1000000000 0.1000000000 0.1000000000 0.1000000000 0.1000000000 0.1000000000 0.1000000000 0.1000000000 0.1000000000 0.1000000000 0.1000000000 0.1000000000 0.1000000000 0.1000000000 0.1000000000 0.1000000000 0.1000000000 0.1000000000 0.1000000000 0.1000000000 0.1000000000 0.1000000000 0.1000000000 0.1000000000 0.1000000000 0.1000000000 0.1000000000 0.1000000000 0.1000000000 0.1000000000 0.1000000000 0.1000000000 0.1000000000 0.1000000000 0.1000000000 0.1000000000 0.1000000000 0.1000000000 0.1000000000 0.1000000000 0.1000000000 0.1000000000 0.1000000000 0.1000000000 0.1000000000 0.1000000000 0.1000000000 0.1000000000 0.1000000000 0.1000000000 0.1000000000 0.1000000000 0.1000000000 0.1000000000 0.1000000000 0.1000000000 0.1000000000 0.1000000000 0.1000000000 0.1000000000 0.1000000000 0.1000000000 0.1000000000 0.1000000000 0.1000000000 0.1000000000 0.1000000000 0.1000000000 0.1000000000 0.1000000000 0.1000000000 0.1000000000 0.1000000000 0.1000000000 0.1000000000 0.1000000000 0.1000000000 0.1000000000 0.1000000000 0.1000000000 0.1000000000 0.1000000000 0.1000000000 0.1000000000 0.1000000000 0.1000000000 0.1000000000 0.1000000000 0.1000000000 0.1000000000 0.1000000000 0.1000000000 0.1000000000 0.1000000000 0.1000000000 0.1000000000 0.1000000000 0.1000000000 0.1000000000 0.1000000000 0.1000000000 0.1000000000 0.1000000000 0.1000000000 0.1000000000 0.1000000000 0.1000000000 0.1000000000 0.1000000000 0.1000000000 0.1000000000 0.1000000000 0.1000000000 0.1000000000 0.1000000000 0.1000000000 0.1000000000 0.1000000000 0.1000000000 0.1000000000 0.1000000000 0.1000000000 0.1000000000 0.1000000000 0.1000000000 0.1000000000 0.1000000000 0.1000000000 0.1000000000 0.1000000000 0.1000000000 0.1000000000 0.1000000000 0.1000000000 0.1000000000 0.1000000000 0.1000000000 0.1000000000 0.1000000000 0.1000000000 0.1000000000 0.1000000000 0.1000000000 0.1000000000 0.1000000000 0.1000000000 0.1000000000 0.1000000000 0.1000000000 0.1000000000 0.1000000000 0.1000000000 0.1000000000 0.1000000000 0.1000000000 0.1000000000 0.1000000000 0.1000000000 0.1000000000 0.1000000000 0.1000000000 0.1000000000 0.1000000000 0.1000000000 0.1000000000 0.1000000000 0.1000000000 0.1000000000 0.1000000000 0.1000000000 0.1000000000 0.1000000000 0.1000000000 0.1000000000 0.1000000000 0.1000000000 0.1000000000 0.1000000000 0.1000000000 0.1000000000 0.1000000000 0.1000000000 0.1000000000 0.1000000000 0.1000000000 0.1000000000 0.1000000000 0.1000000000 0.1000000000 0.1000000000 0.1000000000 0.1000000000 0.1000000000 0.1000000000 0.1000000000 0.1000000000 0.1000000000 0.1000000000 0.1000000000 0.1000000000 0.1000000000 0.1000000000 0.1000000000 0.1000000000 0.1000000000 0.1000000000 0.1000000000 0.1000000000 0.1000000000 0.1000000000 0.1000000000 0.1000000000 0.1000000000 0.1000000000 0.1000000000 0.1000000000 0.1000000000 0.1000000000 0.1000000000 0.1000000000 0.1000000000 0.1000000000 0.1000000000 0.1000000000 0.1000000000 0.1000000000 0.1000000000 0.1000000000 0.1000000000 0.1000000000 0.1000000000 0.1000000000 0.1000000000 0.1000000000 0.1000000000 0.1000000000 0.1000000000 0.1000000000 0.1000000000 0.1000000000 0.1000000000 0.1000000000 0.1000000000 0.1000000000 0.1000000000 0.1000000000 0.1000000000 0.1000000000 0.1000000000 0.1000000000 0.1000000000 0.1000000000 0.1000000000 0.1000000000 0.1000000000 0.1000000000 0.1000000000 0.1000000000 0.1000000000 0.1000000000 0.1000000000 0.1000000000 0.1000000000 0.1000000000 0.1000000000 0.1000000000 0.1000000000 0.1000000000 0.1000000000 0.1000000000 0.1000000000 0.1000000000 0.1000000000 0.1000000000 0.1000000000 0.1000000000 0.1000000000 0.1000000000 0.1000000000 0.1000000000 0.1000000000 0.1000000000 0.1000000000 0.1000000000 0.1000000000 0.1000000000 0.1000000000 0.1000000000 0.1000000000 0.1000000000 0.1000000000 0.1000000000 0.1000000000 0.1000000000 0.1000000000 0.1000000000 0.1000000000 0.1000000000 0.1000000000 0.1000000000 0.1000000000 0.1000000000 0.1000000000 0.1000000000 0.1000000000 0.1000000000 0.1000000000 0.1000000000 0.1000000000 0.1000000000 0.1000000000 0.1000000000 0.1000000000 0.1000000000 0.1000000000 0.1000000000 0.1000000000 0.1000000000 0.1000000000 0.1000000000 0.1000000000 0.1000000000 0.1000000000 0.1000000000 0.1000000000 0.1000000000 0.1000000000 0.1000000000 0.1000000000 0.1000000000 0.1000000000 0.1000000000 0.1000000000 0.1000000000 0.1000000000 0.1000000000 0.1000000000 0.1000000000 0.1000000000 0.1000000000 0.1000000000 0.1000000000 0.1000000000 0.1000000000 0.1000000000 0.1000000000 0.1000000000 0.10000000