<?xml version="1.0"?>
<VTKFile type="UnstructuredGrid" version="0.1" byte_order="LittleEndian">
  <UnstructuredGrid>
    <FieldData>
      <DataArray type="Float32" Name="TIME"  NumberOfTuples="1" format="ascii"> 3.5000000000 </DataArray>
      <DataArray type="Int32"   Name="STEP"  NumberOfTuples="1" format="ascii"> 875000 </DataArray>
    </FieldData>
    <Piece NumberOfPoints="1334" NumberOfCells="2664">
      <Points>
        <DataArray type="Float32" NumberOfComponents="3" format="ascii">
 -0.1000000000 10.0000000000 -3.0000000000 -0.1151922470 10.1736481777 -3.0000000000 -0.1603073792 10.3420201433 -3.0000000000 -0.2339745962 10.5000000000 -3.0000000000 -0.3339555569 10.6427876097 -3.0000000000 -0.4572123903 10.7660444431 -3.0000000000 -0.6000000000 10.8660254038 -3.0000000000 -0.7579798567 10.9396926208 -3.0000000000 -0.9263518223 10.9848077530 -3.0000000000 -1.1000000000 11.0000000000 -3.0000000000 -1.2736481777 10.9848077530 -3.0000000000 -1.4420201433 10.9396926208 -3.0000000000 -1.6000000000 10.8660254038 -3.0000000000 -1.7427876097 10.7660444431 -3.0000000000 -1.8660444431 10.6427876097 -3.0000000000 -1.9660254038 10.5000000000 -3.0000000000 -2.0396926208 10.3420201433 -3.0000000000 -2.0848077530 10.1736481777 -3.0000000000 -2.1000000000 10.0000000000 -3.0000000000 -2.0848077530 9.8263518223 -3.0000000000 -2.0396926208 9.6579798567 -3.0000000000 -1.9660254038 9.5000000000 -3.0000000000 -1.8660444431 9.3572123903 -3.0000000000 -1.7427876097 9.2339555569 -3.0000000000 -1.6000000000 9.1339745962 -3.0000000000 -1.4420201433 9.0603073792 -3.0000000000 -1.2736481777 9.0151922470 -3.0000000000 -1.1000000000 9.0000000000 -3.0000000000 -0.9263518223 9.0151922470 -3.0000000000 -0.7579798567 9.0603073792 -3.0000000000 -0.6000000000 9.1339745962 -3.0000000000 -0.4572123903 9.2339555569 -3.0000000000 -0.3339555569 9.3572123903 -3.0000000000 -0.2339745962 9.5000000000 -3.0000000000 -0.1603073792 9.6579798567 -3.0000000000 -0.1151922470 9.8263518223 -3.0000000000 -0.1000000000 10.0000000000 -2.8333333333 -0.1151922470 10.1736481777 -2.8333333333 -0.1603073792 10.3420201433 -2.8333333333 -0.2339745962 10.5000000000 -2.8333333333 -0.3339555569 10.6427876097 -2.8333333333 -0.4572123903 10.7660444431 -2.8333333333 -0.6000000000 10.8660254038 -2.8333333333 -0.7579798567 10.9396926208 -2.8333333333 -0.9263518223 10.9848077530 -2.8333333333 -1.1000000000 11.0000000000 -2.8333333333 -1.2736481777 10.9848077530 -2.8333333333 -1.4420201433 10.9396926208 -2.8333333333 -1.6000000000 10.8660254038 -2.8333333333 -1.7427876097 10.7660444431 -2.8333333333 -1.8660444431 10.6427876097 -2.8333333333 -1.9660254038 10.5000000000 -2.8333333333 -2.0396926208 10.3420201433 -2.8333333333 -2.0848077530 10.1736481777 -2.8333333333 -2.1000000000 10.0000000000 -2.8333333333 -2.0848077530 9.8263518223 -2.8333333333 -2.0396926208 9.6579798567 -2.8333333333 -1.9660254038 9.5000000000 -2.8333333333 -1.8660444431 9.3572123903 -2.8333333333 -1.7427876097 9.2339555569 -2.8333333333 -1.6000000000 9.1339745962 -2.8333333333 -1.4420201433 9.0603073792 -2.8333333333 -1.2736481777 9.0151922470 -2.8333333333 -1.1000000000 9.0000000000 -2.8333333333 -0.9263518223 9.0151922470 -2.8333333333 -0.7579798567 9.0603073792 -2.8333333333 -0.6000000000 9.1339745962 -2.8333333333 -0.4572123903 9.2339555569 -2.8333333333 -0.3339555569 9.3572123903 -2.8333333333 -0.2339745962 9.5000000000 -2.8333333333 -0.1603073792 9.6579798567 -2.8333333333 -0.1151922470 9.8263518223 -2.8333333333 -0.1000000000 10.0000000000 -2.6666666667 -0.1151922470 10.1736481777 -2.6666666667 -0.1603073792 10.3420201433 -2.6666666667 -0.2339745962 10.5000000000 -2.6666666667 -0.3339555569 10.6427876097 -2.6666666667 -0.4572123903 10.7660444431 -2.6666666667 -0.6000000000 10.8660254038 -2.6666666667 -0.7579798567 10.9396926208 -2.6666666667 -0.9263518223 10.9848077530 -2.6666666667 -1.1000000000 11.0000000000 -2.6666666667 -1.2736481777 10.9848077530 -2.6666666667 -1.4420201433 10.9396926208 -2.6666666667 -1.6000000000 10.8660254038 -2.6666666667 -1.7427876097 10.7660444431 -2.6666666667 -1.8660444431 10.6427876097 -2.6666666667 -1.9660254038 10.5000000000 -2.6666666667 -2.0396926208 10.3420201433 -2.6666666667 -2.0848077530 10.1736481777 -2.6666666667 -2.1000000000 10.0000000000 -2.6666666667 -2.0848077530 9.8263518223 -2.6666666667 -2.0396926208 9.6579798567 -2.6666666667 -1.9660254038 9.5000000000 -2.6666666667 -1.8660444431 9.3572123903 -2.6666666667 -1.7427876097 9.2339555569 -2.6666666667 -1.6000000000 9.1339745962 -2.6666666667 -1.4420201433 9.0603073792 -2.6666666667 -1.2736481777 9.0151922470 -2.6666666667 -1.1000000000 9.0000000000 -2.6666666667 -0.9263518223 9.0151922470 -2.6666666667 -0.7579798567 9.0603073792 -2.6666666667 -0.6000000000 9.1339745962 -2.6666666667 -0.4572123903 9.2339555569 -2.6666666667 -0.3339555569 9.3572123903 -2.6666666667 -0.2339745962 9.5000000000 -2.6666666667 -0.1603073792 9.6579798567 -2.6666666667 -0.1151922470 9.8263518223 -2.6666666667 -0.1000000000 10.0000000000 -2.5000000000 -0.1151922470 10.1736481777 -2.5000000000 -0.1603073792 10.3420201433 -2.5000000000 -0.2339745962 10.5000000000 -2.5000000000 -0.3339555569 10.6427876097 -2.5000000000 -0.4572123903 10.7660444431 -2.5000000000 -0.6000000000 10.8660254038 -2.5000000000 -0.7579798567 10.9396926208 -2.5000000000 -0.9263518223 10.9848077530 -2.5000000000 -1.1000000000 11.0000000000 -2.5000000000 -1.2736481777 10.9848077530 -2.5000000000 -1.4420201433 10.9396926208 -2.5000000000 -1.6000000000 10.8660254038 -2.5000000000 -1.7427876097 10.7660444431 -2.5000000000 -1.8660444431 10.6427876097 -2.5000000000 -1.9660254038 10.5000000000 -2.5000000000 -2.0396926208 10.3420201433 -2.5000000000 -2.0848077530 10.1736481777 -2.5000000000 -2.1000000000 10.0000000000 -2.5000000000 -2.0848077530 9.8263518223 -2.5000000000 -2.0396926208 9.6579798567 -2.5000000000 -1.9660254038 9.5000000000 -2.5000000000 -1.8660444431 9.3572123903 -2.5000000000 -1.7427876097 9.2339555569 -2.5000000000 -1.6000000000 9.1339745962 -2.5000000000 -1.4420201433 9.0603073792 -2.5000000000 -1.2736481777 9.0151922470 -2.5000000000 -1.1000000000 9.0000000000 -2.5000000000 -0.9263518223 9.0151922470 -2.5000000000 -0.7579798567 9.0603073792 -2.5000000000 -0.6000000000 9.1339745962 -2.5000000000 -0.4572123903 9.2339555569 -2.5000000000 -0.3339555569 9.3572123903 -2.5000000000 -0.2339745962 9.5000000000 -2.5000000000 -0.1603073792 9.6579798567 -2.5000000000 -0.1151922470 9.8263518223 -2.5000000000 -0.1000000000 10.0000000000 -2.3333333333 -0.1151922470 10.1736481777 -2.3333333333 -0.1603073792 10.3420201433 -2.3333333333 -0.2339745962 10.5000000000 -2.3333333333 -0.3339555569 10.6427876097 -2.3333333333 -0.4572123903 10.7660444431 -2.3333333333 -0.6000000000 10.8660254038 -2.3333333333 -0.7579798567 10.9396926208 -2.3333333333 -0.9263518223 10.9848077530 -2.3333333333 -1.1000000000 11.0000000000 -2.3333333333 -1.2736481777 10.9848077530 -2.3333333333 -1.4420201433 10.9396926208 -2.3333333333 -1.6000000000 10.8660254038 -2.3333333333 -1.7427876097 10.7660444431 -2.3333333333 -1.8660444431 10.6427876097 -2.3333333333 -1.9660254038 10.5000000000 -2.3333333333 -2.0396926208 10.3420201433 -2.3333333333 -2.0848077530 10.1736481777 -2.3333333333 -2.1000000000 10.0000000000 -2.3333333333 -2.0848077530 9.8263518223 -2.3333333333 -2.0396926208 9.6579798567 -2.3333333333 -1.9660254038 9.5000000000 -2.3333333333 -1.8660444431 9.3572123903 -2.3333333333 -1.7427876097 9.2339555569 -2.3333333333 -1.6000000000 9.1339745962 -2.3333333333 -1.4420201433 9.0603073792 -2.3333333333 -1.2736481777 9.0151922470 -2.3333333333 -1.1000000000 9.0000000000 -2.3333333333 -0.9263518223 9.0151922470 -2.3333333333 -0.7579798567 9.0603073792 -2.3333333333 -0.6000000000 9.1339745962 -2.3333333333 -0.4572123903 9.2339555569 -2.3333333333 -0.3339555569 9.3572123903 -2.3333333333 -0.2339745962 9.5000000000 -2.3333333333 -0.1603073792 9.6579798567 -2.3333333333 -0.1151922470 9.8263518223 -2.3333333333 -0.1000000000 10.0000000000 -2.1666666667 -0.1151922470 10.1736481777 -2.1666666667 -0.1603073792 10.3420201433 -2.1666666667 -0.2339745962 10.5000000000 -2.1666666667 -0.3339555569 10.6427876097 -2.1666666667 -0.4572123903 10.7660444431 -2.1666666667 -0.6000000000 10.8660254038 -2.1666666667 -0.7579798567 10.9396926208 -2.1666666667 -0.9263518223 10.9848077530 -2.1666666667 -1.1000000000 11.0000000000 -2.1666666667 -1.2736481777 10.9848077530 -2.1666666667 -1.4420201433 10.9396926208 -2.1666666667 -1.6000000000 10.8660254038 -2.1666666667 -1.7427876097 10.7660444431 -2.1666666667 -1.8660444431 10.6427876097 -2.1666666667 -1.9660254038 10.5000000000 -2.1666666667 -2.0396926208 10.3420201433 -2.1666666667 -2.0848077530 10.1736481777 -2.1666666667 -2.1000000000 10.0000000000 -2.1666666667 -2.0848077530 9.8263518223 -2.1666666667 -2.0396926208 9.6579798567 -2.1666666667 -1.9660254038 9.5000000000 -2.1666666667 -1.8660444431 9.3572123903 -2.1666666667 -1.7427876097 9.2339555569 -2.1666666667 -1.6000000000 9.1339745962 -2.1666666667 -1.4420201433 9.0603073792 -2.1666666667 -1.2736481777 9.0151922470 -2.1666666667 -1.1000000000 9.0000000000 -2.1666666667 -0.9263518223 9.0151922470 -2.1666666667 -0.7579798567 9.0603073792 -2.1666666667 -0.6000000000 9.1339745962 -2.1666666667 -0.4572123903 9.2339555569 -2.1666666667 -0.3339555569 9.3572123903 -2.1666666667 -0.2339745962 9.5000000000 -2.1666666667 -0.1603073792 9.6579798567 -2.1666666667 -0.1151922470 9.8263518223 -2.1666666667 -0.1000000000 10.0000000000 -2.0000000000 -0.1151922470 10.1736481777 -2.0000000000 -0.1603073792 10.3420201433 -2.0000000000 -0.2339745962 10.5000000000 -2.0000000000 -0.3339555569 10.6427876097 -2.0000000000 -0.4572123903 10.7660444431 -2.0000000000 -0.6000000000 10.8660254038 -2.0000000000 -0.7579798567 10.9396926208 -2.0000000000 -0.9263518223 10.9848077530 -2.0000000000 -1.1000000000 11.0000000000 -2.0000000000 -1.2736481777 10.9848077530 -2.0000000000 -1.4420201433 10.9396926208 -2.0000000000 -1.6000000000 10.866025403
[...]
      <CellData Scalars="materialID">
        <DataArray type="Int32" Name="wallID" format="ascii">
 0 0 0 0 0 0 0 0 0 0 0 0 0 0 0 0 0 0 0 0 0 0 0 0 0 0 0 0 0 0 0 0 0 0 0 0 0 0 0 0 0 0 0 0 0 0 0 0 0 0 0 0 0 0 0 0 0 0 0 0 0 0 0 0 0 0 0 0 0 0 0 0 0 0 0 0 0 0 0 0 0 0 0 0 0 0 0 0 0 0 0 0 0 0 0 0 0 0 0 0 0 0 0 0 0 0 0 0 0 0 0 0 0 0 0 0 0 0 0 0 0 0 0 0 0 0 0 0 0 0 0 0 0 0 0 0 0 0 0 0 0 0 0 0 0 0 0 0 0 0 0 0 0 0 0 0 0 0 0 0 0 0 0 0 0 0 0 0 0 0 0 0 0 0 0 0 0 0 0 0 0 0 0 0 0 0 0 0 0 0 0 0 0 0 0 0 0 0 0 0 0 0 0 0 0 0 0 0 0 0 0 0 0 0 0 0 0 0 0 0 0 0 0 0 0 0 0 0 0 0 0 0 0 0 0 0 0 0 0 0 0 0 0 0 0 0 0 0 0 0 0 0 0 0 0 0 0 0 0 0 0 0 0 0 0 0 0 0 0 0 0 0 0 0 0 0 0 0 0 0 0 0 0 0 0 0 0 0 0 0 0 0 0 0 0 0 0 0 0 0 0 0 0 0 0 0 0 0 0 0 0 0 0 0 0 0 0 0 0 0 0 0 0 0 0 0 0 0 0 0 0 0 0 0 0 0 0 0 0 0 0 0 0 0 0 0 0 0 0 0 0 0 0 0 0 0 0 0 0 0 0 0 0 0 0 0 0 0 0 0 0 0 0 0 0 0 0 0 0 0 0 0 0 0 0 0 0 0 0 0 0 0 0 0 0 0 0 0 0 0 0 0 0 0 0 0 0 0 0 0 0 0 0 0 0 0 0 0 0 0 0 0 0 0 0 0 0 0 0 0 0 0 0 0 0 0 0 0 0 0 0 0 0 0 0 0 0 0 0 0 0 0 0 0 0 0 0 0 0 0 0 0 0 0 0 0 0 0 0 0 0 0 0 0 0 0 0 0 0 0 0 0 0 0 0 0 0 0 0 0 0 0 0 0 0 0 0 0 0 0 0 0 0 0 0 0 0 0 0 0 0 0 0 0 0 0 0 0 0 0 0 0 0 0 0 0 0 0 0 0 0 0 0 0 0 0 0 0 0 0 0 0 0 0 0 0 0 0 0 0 0 0 0 0 0 0 0 0 0 0 0 0 0 0 0 0 0 0 0 0 0 0 0 0 0 0 0 0 0 0 0 0 0 0 0 0 0 0 0 0 0 0 0 0 0 0 0 0 0 0 0 0 0 0 0 0 0 0 0 0 0 0 0 0 0 0 0 0 0 0 0 0 0 0 0 0 0 0 0 0 0 0 0 0 0 0 0 0 0 0 0 0 0 0 0 0 0 0 0 0 0 0 0 0 0 0 0 0 0 0 0 0 0 0 0 0 0 0 0 0 0 0 0 0 0 0 0 0 0 0 0 0 0 0 0 0 0 0 0 0 0 0 0 0 0 0 0 0 0 0 0 0 0 0 0 0 0 0 0 0 0 0 0 0 0 0 0 0 0 0 0 0 0 0 0 0 0 0 0 0 0 0 0 0 0 0 0 0 0 0 0 0 0 0 0 0 0 0 0 0 0 0 0 0 0 0 0 0 0 0 0 0 0 0 0 0 0 0 0 0 0 0 0 0 0 0 0 0 0 0 0 0 0 0 0 0 0 0 0 0 0 0 0 0 0 0 0 0 0 0 0 0 0 0 0 0 0 0 0 0 0 0 0 0 0 0 0 0 0 0 0 0 0 0 0 0 0 0 0 0 0 0 0 0 0 0 0 0 0 0 0 0 0 0 0 0 0 0 0 0 0 0 0 0 0 0 0 0 0 0 0 0 0 0 0 0 0 0 0 0 0 0 0 0 0 0 0 0 0 0 0 0 0 0 0 0 0 0 0 0 0 0 0 0 0 0 0 0 0 0 0 0 0 0 0 0 0 0 0 0 0 0 0 0 0 0 0 0 0 0 0 0 0 0 0 0 0 0 0 0 0 0 0 0 0 0 0 0 0 0 0 0 0 0 0 0 0 0 0 0 0 0 0 0 0 0 0 0 0 0 0 0 0 0 0 0 0 0 0 0 0 0 0 0 0 0 0 0 0 0 0 0 0 0 0 0 0 0 0 0 0 0 0 0 0 0 0 0 0 0 0 0 0 0 0 0 0 0 0 0 0 0 0 0 0 0 0 0 0 0 0 0 0 0 0 0 0 0 0 0 0 0 0 0 0 0 0 0 0 0 0 0 0 0 0 0 0 0 0 0 0 0 0 0 0 0 0 0 0 0 0 0 0 0 0 0 0 0 0 0 0 0 0 0 0 0 0 0 0 0 0 0 0 0 0 0 0 0 0 0 0 0 0 0 0 0 0 0 0 0 0 0 0 0 0 0 0 0 0 0 0 0 0 0 0 0 0 0 0 0 0 0 0 0 0 0 0 0 0 0 0 0 0 0 0 0 0 0 0 0 0 0 0 0 0 0 0 0 0 0 0 0 0 0 0 0 0 0 0 0 0 0 0 0 0 0 0 0 0 0 0 0 0 0 0 0 0 0 0 0 0 0 0 0 0 0 0 0 0 0 0 0 0 0 0 0 0 0 0 0 0 0 0 0 0 0 0 0 0 0 0 0 0 0 0 0 0 0 0 0 0 0 0 0 0 0 0 0 0 0 0 0 0 0 0 0 0 0 0 0 0 0 0 0 0 0 0 0 0 0 0 0 0 0 0 0 0 0 0 0 0 0 0 0 0 0 0 0 0 0 0 0 0 0 0 0 0 0 0 0 0 0 0 0 0 0 0 0 0 0 0 0 0 0 0 0 0 0 0 0 0 0 0 0 0 0 0 0 0 0 0 0 0 0 0 0 0 0 0 0 0 0 0 0 0 0 0 0 0 0 0 0 0 0 0 0 0 0 0 0 0 0 0 0 0 0 0 0 0 0 0 0 0 0 0 0 0 0 0 0 0 0 0 0 0 0 0 0 0 0 0 0 0 0 0 0 0 0 0 0 0 0 0 0 0 0 0 0 0 0 0 0 0 0 0 0 0 0 0 0 0 0 0 0 0 0 0 0 0 0 0 0 0 0 0 0 0 0 0 0 0 0 0 0 0 0 0 0 0 0 0 0 0 0 0 0 0 0 0 0 0 0 0 0 0 0 0 0 0 0 0 0 0 0 0 0 0 0 0 0 0 0 0 0 0 0 0 0 0 0 0 0 0 0 0 0 0 0 0 0 0 0 0 0 0 0 0 0 0 0 0 0 0 0 0 0 0 0 0 0 0 0 0 0 0 0 0 0 0 0 0 0 0 0 0 0 0 0 0 0 0 0 0 0 0 0 0 0 0 0 0 0 0 0 0 0 0 0 0 0 0 0 0 0 0 0 0 0 0 0 0 0 0 0 0 0 0 0 0 0 0 0 0 0 0 0 0 0 0 0 0 0 0 0 0 0 0 0 0 0 0 0 0 0 0 0 0 0 0 0 0 0 0 0 0 0 0 0 0 0 0 0 0 0 0 0 0 0 0 0 0 0 0 0 0 0 0 0 0 0 0 0 0 0 0 0 0 0 0 0 0 0 0 0 0 0 0 0 0 0 0 0 0 0 0 0 0 0 0 0 0 0 0 0 0 0 0 0 0 0 0 0 0 0 0 0 0 0 0 0 0 0 0 0 0 0 0 0 0 0 0 0 0 0 0 0 0 0 0 0 0 0 0 0 0 0 0 0 0 0 0 0 0 0 0 0 0 0 0 0 0 0 0 0 0 0 0 0 0 0 0 0 0 0 0 0 0 0 0 0 0 0 0 0 0 0 0 0 0 0 0 0 0 0 0 0 0 0 0 0 0 0 0 0 0 0 0 0 0 0 0 0 0 0 0 0 0 0 0 0 0 0 0 0 0 0 0 0 0 0 0 0 0 0 0 0 0 0 0 0 0 0 0 0 0 0 0 0 0 0 0 0 0 0 0 0 0 0 0 0 0 0 0 0 0 0 0 0 0 0 0 0 0 0 0 0 0 0 0 0 0 0 0 0 0 0 0 0 0 0 0 0 0 0 0 0 0 0 0 0 0 0 0 0 0 0 0 0 0 0 0 0 0 0 0 0 0 0 0 0 0 0 0 0 0 0 0 0 0 0 0 0 0 0 0 0 0 0 0 0 0 0 0 0 0 0 0 0 0 0 0 0 0 0 0 0 0 0 0 0 0 0 0 0 0 0 0 0 0 0 0 0 0 0 0 0 0 0 0 0 0 0 0 0 0 0 0 0 0 0 0 0 0 0 0 0 0 0 0 0 0 0 0 0 0 0 0 0 0 0 0 0 0 0 0 0 0 0 0 0 0 0 0 0 0 0 0 0 0 0 0 0 0 0 0 0 0 0 0 0 0 0 0 0 0 0 0 0 0 0 0 0 0 0 0 0 0 0 0 0 0 0 0 0 0 0 0 0 0 0 0 0 0 0 0 0 0 0 0 0 0 0 0 0 0 0 0 0 0 0 0 0 0 0 0 0 0 0 0 0 0 0 0 0 0 0 0 0 0 0 0 0 0 0 0 0 0 0 0 0 0 0 0 0 0 0 0 0 0 0 0 0 0 0 0 0 0 0 0 0 0 0 0 0 0 0 0 0 0 0 0 0 0 0 0 0 0 0 0 0 0 0 0 0 0 0 0 0 0 0 0 0 0 0 0 0 0 0 0 0 0 0 0 0 0 0 0 0 0 0 0 0 0 0 0 0 0 0 0 0 0 0 0 0 0 0 0 0 0 0 0 0 0 0 0 0 0 0 0 0 0 0 0 0 0 0 0 0 0 0 0 0 0 0 0 0 0 0 0 0 0 0 0 0 0 0 0 0 0 0 0 0 0 0 0 0 0 0 0 0 0 0 0 0 0 0 0 0 0 0 0 0 0 0 0 0 0 0 0 0 0 0 0 0 0 0 0 0 0 0 0 0 0 0 0 0 0 0 0 0 0 0 0 0 0 0 0 0 0 0 0 0 0 0 0 0 0 0 0 0 0 0 0 0 0 0 0 0 0 0 0 0 0 0 0 0 0 0 0 0 0 0 0 0 0 0 0 0 0 0 0 0 0 0 0 0 0 0 0 0 0 0 0 0 0 0 0 0 0 0 0 0 0 0 0 0 0 0 0 0 0 0 0 0 0 0 0 0 0 0 0 0 0 0 0 0 0 0 0 0 0 0 0 0 0 0 0 0 0 0 0 0 0 0 0 0 0 0 0 0 0 0 0 0 0 0 0 0 0 0 0 0 0 0 0 0 0 0 0 0 0 0 0 0 0 0 0 0 0 0 0 0 0 0 0 0 0 0 0 0 0 0 0 0 0 0 0 0 0 0 0 0 0 0 0 0 0 0 0 0 0 0 0 0 0 0 0 0 0 0 0 0 0 0 0 0 0 0 0 0 0 0 0 0 0 0 0 0 0 0 0 0 0 0 0 0 0 0 0 0 0 0 0 0 0 0 0 0 0 0 0 0 0 0 0 0 0 0 0 0 0 0 0 0 0 0 0 0 0 0 0 0 0 0 0 0 0 0 0 0 0 0 0 0 0 0 0 0 0 0 0 0 0 0 0 0 0 0 0 0 0 0 0 0 0 0 0 0 0 0 0 0 0 0 0 0 0 0 0 0 0 0 0 0 0 0 0 0 0 0 0 0 0 0 0 0 0 0 0 0 0 0 0 0 0 0 0 0 0 0 0 0 0 0 0 0 0 0 0 0 0 0 0 0 0 0 0 0 0 0 0 0 0 0 0 0 0 0 0 0 0 0 0 0 0 0 0 0 0 0 0 0 0 0 0 0 0 0 0 0 0 0 0 0 0 0 0 0 0 0 0 0 0 0 0 0 0 0 0 0 0 0 0 0 0 0 0 0 0 0 0 0 0 0
        </DataArray>
        <DataArray type="Int32" Name="materialID" format="ascii">
 1 1 1 1 1 1 1 1 1 1 1 1 1 1 1 1 1 1 1 1 1 1 1 1 1 1 1 1 1 1 1 1 1 1 1 1 1 1 1 1 1 1 1 1 1 1 1 1 1 1 1 1 1 1 1 1 1 1 1 1 1 1 1 1 1 1 1 1 1 1 1 1 1 1 1 1 1 1 1 1 1 1 1 1 1 1 1 1 1 1 1 1 1 1 1 1 1 1 1 1 1 1 1 1 1 1 1 1 1 1 1 1 1 1 1 1 1 1 1 1 1 1 1 1 1 1 1 1 1 1 1 1 1 1 1 1 1 1 1 1 1 1 1 1 1 1 1 1 1 1 1 1 1 1 1 1 1 1 1 1 1 1 1 1 1 1 1 1 1 1 1 1 1 1 1 1 1 1 1 1 1 1 1 1 1 1 1 1 1 1 1 1 1 1 1 1 1 1 1 1 1 1 1 1 1 1 1 1 1 1 1 1 1 1 1 1 1 1 1 1 1 1 1 1 1 1 1 1 1 1 1 1 1 1 1 1 1 1 1 1 1 1 1 1 1 1 1 1 1 1 1 1 1 1 1 1 1 1 1 1 1 1 1 1 1 1 1 1 1 1 1 1 1 1 1 1 1 1 1 1 1 1 1 1 1 1 1 1 1 1 1 1 1 1 1 1 1 1 1 1 1 1 1 1 1 1 1 1 1 1 1 1 1 1 1 1 1 1 1 1 1 1 1 1 1 1 1 1 1 1 1 1 1 1 1 1 1 1 1 1 1 1 1 1 1 1 1 1 1 1 1 1 1 1 1 1 1 1 1 1 1 1 1 1 1 1 1 1 1 1 1 1 1 1 1 1 1 1 1 1 1 1 1 1 1 1 1 1 1 1 1 1 1 1 1 1 1 1 1 1 1 1 1 1 1 1 1 1 1 1 1 1 1 1 1 1 1 1 1 1 1 1 1 1 1 1 1 1 1 1 1 1 1 1 1 1 1 1 1 1 1 1 1 1 1 1 1 1 1 1 1 1 1 1 1 1 1 1 1 1 1 1 1 1 1 1 1 1 1 1 1 1 1 1 1 1 1 1 1 1 1 1 1 1 1 1 1 1 1 1 1 1 1 1 1 1 1 1 1 1 1 1 1 1 1 1 1 1 1 1 1 1 1 1 1 1 1 1 1 1 1 1 1 1 1 1 1 1 1 1 1 1 1 1 1 1 1 1 1 1 1 1 1 1 1 1 1 1 1 1 1 1 1 1 1 1 1 1 1 1 1 1 1 1 1 1 1 1 1 1 1 1 1 1 1 1 1 1 1 1 1 1 1 1 1 1 1 1 1 1 1 1 1 1 1 1 1 1 1 1 1 1 1 1 1 1 1 1 1 1 1 1 1 1 1 1 1 1 1 1 1 1 1 1 1 1 1 1 1 1 1 1 1 1 1 1 1 1 1 1 1 1 1 1 1 1 1 1 1 1 1 1 1 1 1 1 1 1 1 1 1 1 1 1 1 1 1 1 1 1 1 1 1 1 1 1 1 1 1 1 1 1 1 1 1 1 1 1 1 1 1 1 1 1 1 1 1 1 1 1 1 1 1 1 1 1 1 1 1 1 1 1 1 1 1 1 1 1 1 1 1 1 1 1 1 1 1 1 1 1 1 1 1 1 1 1 1 1 1 1 1 1 1 1 1 1 1 1 1 1 1 1 1 1 1 1 1 1 1 1 1 1 1 1 1 1 1 1 1 1 1 1 1 1 1 1 1 1 1 1 1 1 1 1 1 1 1 1 1 1 1 1 1 1 1 1 1 1 1 1 1 1 1 1 1 1 1 1 1 1 1 1 1 1 1 1 1 1 1 1 1 1 1 1 1 1 1 1 1 1 1 1 1 1 1 1 1 1 1 1 1 1 1 1 1 1 1 1 1 1 1 1 1 1 1 1 1 1 1 1 1 1 1 1 1 1 1 1 1 1 1 1 1 1 1 1 1 1 1 1 1 1 1 1 1 1 1 1 1 1 1 1 1 1 1 1 1 1 1 1 1 1 1 1 1 1 1 1 1 1 1 1 1 1 1 1 1 1 1 1 1 1 1 1 1 1 1 1 1 1 1 1 1 1 1 1 1 1 1 1 1 1 1 1 1 1 1 1 1 1 1 1 1 1 1 1 1 1 1 1 1 1 1 1 1 1 1 1 1 1 1 1 1 1 1 1 1 1 1 1 1 1 1 1 1 1 1 1 1 1 1 1 1 1 1 1 1 1 1 1 1 1 1 1 1 1 1 1 1 1 1 1 1 1 1 1 1 1 1 1 1 1 1 1 1 1 1 1 1 1 1 1 1 1 1 1 1 1 1 1 1 1 1 1 1 1 1 1 1 1 1 1 1 1 1 1 1 1 1 1 1 1 1 1 1 1 1 1 1 1 1 1 1 1 1 1 1 1 1 1 1 1 1 1 1 1 1 1 1 1 1 1 1 1 1 1 1 1 1 1 1 1 1 1 1 1 1 1 1 1 1 1 1 1 1 1 1 1 1 1 1 1 1 1 1 1 1 1 1 1 1 1 1 1 1 1 1 1 1 1 1 1 1 1 1 1 1 1 1 1 1 1 1 1 1 1 1 1 1 1 1 1 1 1 1 1 1 1 1 1 1 1 1 1 1 1 1 1 1 1 1 1 1 1 1 1 1 1 1 1 1 1 1 1 1 1 1 1 1 1 1 1 1 1 1 1 1 1 1 1 1 1 1 1 1 1 1 1 1 1 1 1 1 1 1 1 1 1 1 1 1 1 1 1 1 1 1 1 1 1 1 1 1 1 1 1 1 1 1 1 1 1 1 1 1 1 1 1 1 1 1 1 1 1 1 1 1 1 1 1 1 1 1 1 1 1 1 1 1 1 1 1 1 1 1 1 1 1 1 1 1 1 1 1 1 1 1 1 1 1 1 1 1 1 1 1 1 1 1 1 1 1 1 1 1 1 1 1 1 1 1 1 1 1 1 1 1 1 1 1 1 1 1 1 1 1 1 1 1 1 1 1 1 1 1 1 1 1 1 1 1 1 1 1 1 1 1 1 1 1 1 1 1 1 1 1 1 1 1 1 1 1 1 1 1 1 1 1 1 1 1 1 1 1 1 1 1 1 1 1 1 1 1 1 1 1 1 1 1 1 1 1 1 1 1 1 1 1 1 1 1 1 1 1 1 1 1 1 1 1 1 1 1 1 1 1 1 1 1 1 1 1 1 1 1 1 1 1 1 1 1 1 1 1 1 1 1 1 1 1 1 1 1 1 1 1 1 1 1 1 1 1 1 1 1 1 1 1 1 1 1 1 1 1 1 1 1 1 1 1 1 1 1 1 1 1 1 1 1 1 1 1 1 1 1 1 1 1 1 1 1 1 1 1 1 1 1 1 1 1 1 1 1 1 1 1 1 1 1 1 1 1 1 1 1 1 1 1 1 1 1 1 1 1 1 1 1 1 1 1 1 1 1 1 1 1 1 1 1 1 1 1 1 1 1 1 1 1 1 1 1 1 1 1 1 1 1 1 1 1 1 1 1 1 1 1 1 1 1 1 1 1 1 1 1 1 1 1 1 1 1 1 1 1 1 1 1 1 1 1 1 1 1 1 1 1 1 1 1 1 1 1 1 1 1 1 1 1 1 1 1 1 1 1 1 1 1 1 1 1 1 1 1 1 1 1 1 1 1 1 1 1 1 1 1 1 1 1 1 1 1 1 1 1 1 1 1 1 1 1 1 1 1 1 1 1 1 1 1 1 1 1 1 1 1 1 1 1 1 1 1 1 1 1 1 1 1 1 1 1 1 1 1 1 1 1 1 1 1 1 1 1 1 1 1 1 1 1 1 1 1 1 1 1 1 1 1 1 1 1 1 1 1 1 1 1 1 1 1 1 1 1 1 1 1 1 1 1 1 1 1 1 1 1 1 1 1 1 1 1 1 1 1 1 1 1 1 1 1 1 1 1 1 1 1 1 1 1 1 1 1 1 1 1 1 1 1 1 1 1 1 1 1 1 1 1 1 1 1 1 1 1 1 1 1 1 1 1 1 1 1 1 1 1 1 1 1 1 1 1 1 1 1 1 1 1 1 1 1 1 1 1 1 1 1 1 1 1 1 1 1 1 1 1 1 1 1 1 1 1 1 1 1 1 1 1 1 1 1 1 1 1 1 1 1 1 1 1 1 1 1 1 1 1 1 1 1 1 1 1 1 1 1 1 1 1 1 1 1 1 1 1 1 1 1 1 1 1 1 1 1 1 1 1 1 1 1 1 1 1 1 1 1 1 1 1 1 1 1 1 1 1 1 1 1 1 1 1 1 1 1 1 1 1 1 1 1 1 1 1 1 1 1 1 1 1 1 1 1 1 1 1 1 1 1 1 1 1 1 1 1 1 1 1 1 1 1 1 1 1 1 1 1 1 1 1 1 1 1 1 1 1 1 1 1 1 1 1 1 1 1 1 1 1 1 1 1 1 1 1 1 1 1 1 1 1 1 1 1 1 1 1 1 1 1 1 1 1 1 1 1 1 1 1 1 1 1 1 1 1 1 1 1 1 1 1 1 1 1 1 1 1 1 1 1 1 1 1 1 1 1 1 1 1 1 1 1 1 1 1 1 1 1 1 1 1 1 1 1 1 1 1 1 1 1 1 1 1 1 1 1 1 1 1 1 1 1 1 1 1 1 1 1 1 1 1 1 1 1 1 1 1 1 1 1 1 1 1 1 1 1 1 1 1 1 1 1 1 1 1 1 1 1 1 1 1 1 1 1 1 1 1 1 1 1 1 1 1 1 1 1 1 1 1 1 1 1 1 1 1 1 1 1 1 1 1 1 1 1 1 1 1 1 1 1 1 1 1 1 1 1 1 1 1 1 1 1 1 1 1 1 1 1 1 1 1 1 1 1 1 1 1 1 1 1 1 1 1 1 1 1 1 1 1 1 1 1 1 1 1 1 1 1 1 1 1 1 1 1 1 1 1 1 1 1 1 1 1 1 1 1 1 1 1 1 1 1 1 1 1 1 1 1 1 1 1 1 1 1 1 1 1 1 1 1 1 1 1 1 1 1 1 1 1 1 1 1 1 1 1 1 1 1 1 1 1 1 1 1 1 1 1 1 1 1 1 1 1 1 1 1 1 1 1 1 1 1 1 1 1 1 1 1 1 1 1 1 1 1 1 1 1 1 1 1 1 1 1 1 1 1 1 1 1 1 1 1 1 1 1 1 1 1 1 1 1 1 1 1 1 1 1 1 1 1 1 1 1 1 1 1 1 1 1 1 1 1 1 1 1 1 1 1 1 1 1 1 1 1 1 1 1 1 1 1 1 1 1 1 1 1 1 1 1 1 1 1 1 1 1 1 1 1 1 1 1 1 1 1 1 1 1 1 1 1 1 1 1 1 1 1 1 1 1 1 1 1 1 1 1 1 1 1 1 1 1 1 1 1 1 1 1 1 1 1 1 1 1 1 1 1 1 1 1 1 1 1 1 1 1 1 1 1 1 1 1 1 1 1 1 1 1 1 1 1 1 1 1 1 1 1 1 1 1 1 1 1 1 1 1 1 1 1 1 1 1 1 1 1 1 1 1 1 1 1 1 1 1 1 1 1 1 1 1 1 1 1 1 1 1 1 1 1 1 1 1 1 1 1 1 1 1 1 1 1 1 1 1 1 1 1 1 1 1 1 1 1 1 1 1 1 1 1 1 1 1 1 1 1 1 1 1 1 1 1 1 1 1 1 1 1 1 1 1 1 1 1 1 1 1 1 1 1 1 1 1 1 1 1 1 1 1 1 1 1 1 1 1 1 1 1 1 1 1 1 1 1 1 1 1 1 1 1 1 1 1 1 1 1 1 1 1 1 1 1 1 1 1 1 1 1 1 1 1 1 1 1 1 1 1 1 1 1 1 1 1 1 1 1 1 1 1 1 1 1 1 1 1 1 1 1 1 1 1 1 1 1 1 1 1 1 1 1 1 1 1 1 1 1 1 1 1 1 1
        </DataArray>
      </CellData>
    </Piece>
  </UnstructuredGrid>
</VTKFile>
