<?xml version="1.0"?>
<VTKFile type="UnstructuredGrid" version="0.1" byte_order="LittleEndian">
  <UnstructuredGrid>
    <FieldData>
      <DataArray type="Float32" Name="TIME"  NumberOfTuples="1" format="ascii"> 1.6900000000 </DataArray>
      <DataArray type="Int32"   Name="STEP"  NumberOfTuples="1" format="ascii"> 16900 </DataArray>
    </FieldData>
    <Piece NumberOfPoints="4" NumberOfCells="2">
      <Points>
        <DataArray type="Float32" NumberOfComponents="3" format="ascii">
 -1.0000000000 -1.0000000000 -1.0000000000 1.0000000000 -1.0000000000 -1.0000000000 1.0000000000 1.0000000000 -1.0000000000 -1.0000000000 1.0000000000 -1.0000000000
        </DataArray>
      </Points>
      <Cells>
        <DataArray type="Int32" Name="connectivity" format="ascii">
 0 1 3 1 2 3
        </DataArray>
        <DataArray type="Int32" Name="offsets" format="ascii">
 3 6
        </DataArray>
        <DataArray type="UInt8" Name="types" format="ascii">
 5 5
        </DataArray>
      </Cells>
      <CellData Scalars="materialID">
        <DataArray type="Int32" Name="wallID" format="ascii">
 0 0
        </DataArray>
        <DataArray type="Int32" Name="materialID" format="ascii">
 0 0
        </DataArray>
      </CellData>
    </Piece>
  </UnstructuredGrid>
</VTKFile>
