<?xml version="1.0"?>
<VTKFile type="UnstructuredGrid" version="0.1" byte_order="LittleEndian">
  <UnstructuredGrid>
    <FieldData>
      <DataArray type="Float32" Name="TIME"  NumberOfTuples="1" format="ascii"> 2.5982104618 </DataArray>
      <DataArray type="Int32"   Name="STEP"  NumberOfTuples="1" format="ascii"> 34840 </DataArray>
    </FieldData>
    <Piece NumberOfPoints="18081" NumberOfCells="18081">
      <Points>
        <DataArray type="Float32" NumberOfComponents="3" format="ascii">
 0.1117761571 0.0264730214 -0.0000173681 0.1131159519 0.0036947249 0.0048854920 0.0686843226 0.0007961090 0.0083893122 0.2902006605 0.0180782410 0.0094149097 0.2680820403 0.0183869084 0.0144565163 0.1497559271 0.0008413730 0.0006737191 0.3701371382 0.0002885018 0.0008058389 0.3871694522 0.0216959984 0.0000831636 0.4636826808 0.0029493984 0.0267763413 0.2594668802 0.0019471692 0.0185492441 0.2883652767 0.0240929992 0.0068612068 0.4508344471 0.0618406166 0.0327912353 0.4681099858 0.0397024365 0.0003850950 0.4484229296 0.0700481347 0.0272151689 0.4426627092 0.0129394092 0.0196136005 0.4238987608 0.0376471989 0.0005311546 0.4245430951 0.0007602650 0.0124037319 0.3873105802 0.0391008553 0.0079101739 0.2395341749 0.0153976798 0.0172012885 0.4691894301 0.0041197266 0.0311767312 0.3963136852 0.0548645645 0.0319677581 0.0494081392 0.0139477357 0.0002893653 0.0297336459 0.0126166685 0.0003367357 0.0006513059 0.0776300149 0.0006114292 0.0119974866 0.0268323580 0.0075267807 0.3009278687 0.0040788260 0.0194810861 0.3383616989 0.0142126402 -0.0004327503 0.3274142270 0.0052338951 -0.0001974608 0.4769106704 0.0021535694 0.0146288796 0.4504502801 0.0156383972 0.0322722376 0.4264778645 0.0542144742 0.0070473864 0.4070299224 0.0295010215 0.0056904737 0.3990100625 0.0661961590 0.0003795458 0.4795205647 0.0721397507 0.0306759367 0.4529052498 0.0348121688 0.0159836560 0.4217485593 0.0080804342 0.0196439966 0.4737109063 0.0202830905 0.0145300124 0.4052838134 0.0041377225 0.0049441529 0.2221422808 0.0062730768 0.0137181228 0.2398234782 0.0213472412 0.0135130805 0.0296818672 0.0091814446 0.0055268345 0.3795417670 0.0235009956 0.0221476996 0.1998712656 0.0012115548 -0.0003094708 0.1273056645 0.0056168207 0.0010297982 0.1145839484 0.0050272289 0.0002473669 0.0541856415 0.0118336802 0.0003869864 0.2599373946 0.0003085871 0.0125658343 0.3599871223 0.0079027527 0.0004999923 0.3845890441 0.0445490533 0.0006656706 0.3002594468 0.0416871752 0.0247231435 0.2555470037 0.0326269581 0.0182377947 0.3487066782 0.0054188868 -0.0000915673 0.4708617553 0.0486356175 0.0008685721 0.4103790841 0.0707712990 0.0101927417 0.3984744699 0.0707628411 0.0036733144 0.4403460395 0.0329705455 0.0147712303 0.4145980015 0.0514899600 0.0200782932 0.3160245932 0.0042791569 0.0212620535 0.4606175299 0.0159827256 0.0255539192 0.4732109821 0.0115066861 0.0319621776 0.4833752578 0.0095821292 0.0299101508 0.3670533875 0.0297100353 0.0129444414 0.3022760903 0.0606476173 0.0312147259 0.0674008592 0.0210559680 0.0004173408 0.1645392155 0.0093804657 -0.0000227733 0.1376285233 0.0110160843 0.0114310158 0.2473069908 0.0102066946 0.0138063533 0.3182533448 0.0239689513 0.0182352688 0.3403001873 0.0046446111 0.0139909522 0.3869062822 0.0067326767 0.0023535614 0.3343295337 0.0138528428 0.0082951563 0.4994170461 0.0127290887 0.0054498685 0.4813176451 0.0388554840 0.0240793668 0.4125762617 0.0840660572 0.0079875599 0.3800047078 0.0638914254 0.0041803540 0.4177584208 0.0699823304 0.0214832072 0.4335568962 0.0270523222 0.0230553722 0.3818131302 0.0177587066 0.0241954237 0.4267197463 0.0501310370 0.0247274503 0.0668420902 0.0161521770 0.0090156506 0.2527004035 0.0295101801 0.0108917443 0.0484025367 0.0077988749 0.0098676714 0.4361654211 0.0767190450 0.0209138445 0.3713307597 0.0261038476 0.0138361649 0.1217984619 0.0215877414 -0.0001215040 0.1603508446 0.0007168436 0.0005005220 0.2880679852 0.0051599538 0.0074518380 0.1673439763 0.0001601826 0.0000586335 0.0804637271 0.0108842529 0.0003906796 0.3134091461 0.0265684346 0.0071559433 0.3590929194 0.0326329293 -0.0004189627 0.4757101755 0.0163480574 0.0192766771 0.2779494846 0.0426691753 0.0257893957 0.4661101413 0.0235697515 0.0007746158 0.4774298593 0.0543669491 0.0104237666 0.3568009582 0.0600082759 0.0127309245 0.3968230751 0.0467957949 0.0002766069 0.4489546495 0.0827682471 0.0116105030 0.4058616666 0.0103197646 0.0132847345 0.1980421545 0.0177191336 0.0141090273 0.3611820847 0.0206823009 0.0203258460 0.2905388252 0.0388227017 0.0296872672 0.4670669606 0.0122117741 0.0319128873 0.4206897077 0.0324994039 0.0336046754 0.4195165888 0.0748090996 0.0334608228 0.0864848544 0.0325413391 0.0001383877 0.1460854158 0.0286568393 -0.0005015737 0.2104230909 0.0007500153 0.0009726016 0.0826937984 0.0000850499 0.0049250802 0.2145645681 0.0010679967 -0.0003494649 0.2813927270 0.0107051639 0.0001901408 0.3957318722 0.0080323144 0.0008892841 0.4710858972 0.0010941391 0.0038189648 0.3247103079 0.0305818038 0.0193725248 0.3672701024 0.0214423121 0.0180509222 0.3798048550 0.0515755867 0.0104753714 0.3487915061 0.0583148955 0.0038513808 0.4067026667 0.0643762607 0.0254798165 0.4356505157 0.0661416573 0.0185453253 0.4439750862 0.0158717891 0.0007372140 0.2264085237 0.0284099822 0.0141171129 0.2746971786 0.0259975310 -0.0003339777 0.0060571631 0.0085918480 0.0141038306 0.0797045614 0.0104900258 0.0083125628 0.4246688292 0.0177884566 0.0079173413 0.3937505752 0.0363782688 0.0127609144 0.2717314790 0.0108133380 0.0036384194 0.1715316685 0.0126927285 0.0044414149 0.1422104777 0.0006420176 -0.0001168534 0.0113897461 0.0271839212 0.0009575119 0.1903856299 0.0208073853 0.0070987817 0.2898930369 0.0017615764 -0.0002369996 0.4369571155 0.0359767040 0.0067178033 0.2923066603 0.0368287674 0.0059604284 0.2944608558 0.0077334776 -0.0003669437 0.4627775468 0.0533257450 0.0006266105 0.4339944031 0.0069033688 0.0005332754 0.4234793747 0.0880241942 0.0003353919 0.3921288786 0.0564251402 0.0115827407 0.4258459224 0.0774981514 0.0195517540 0.3905878297 0.0285834909 0.0236205297 0.3686890631 0.0358500909 0.0256528209 0.1715679054 0.0150892356 0.0077091806 0.2687437784 0.0501666732 0.0226832891 0.0126679831 0.0307716662 0.0174930208 0.4431271051 0.0666022737 0.0318324050 0.3065546135 0.0425635070 0.0289009810 0.2085363565 0.0048635749 0.0004773664 0.0248481160 0.0070519755 0.0136716968 0.1770624340 0.0399996966 0.0123226908 0.1231613813 0.0012789787 0.0035033857 0.1752038371 0.0208144228 -0.0001409509 0.2641408538 0.0415045657 0.0108581299 0.4308837184 0.0116526791 0.0008704821 0.2916394479 0.0303204858 0.0006639269 0.3010441909 0.0199324738 0.0052636688 0.3224033432 0.0323954118 0.0045417134 0.4721290456 0.0783715343 0.0300916063 0.3959607686 0.0737137638 0.0081451330 0.3319005271 0.0575104197 0.0173600072 0.3096897079 0.0184321176 0.0042256950 0.4359582795 0.0888735241 0.0176351799 0.3615128302 0.0341242589 0.0209582833 0.0127558719 0.0334706895 0.0057397338 0.0138075837 0.0608651558 0.0106507595 0.4562300032 0.0887588659 0.0199540225 0.2049740368 0.0409248039 0.0151073334 0.3496793486 0.0857981281 0.0306687750 0.2374429485 0.0002137710 -0.0000205420 0.1931696563 0.0565843362 0.0119102767 0.0889118823 0.0004023073 0.0027527974 0.0947676036 0.0011273077 0.0060225739 0.0572377569 0.0124530422 0.0094176711 0.3056392526 0.0166252185 0.0003905075 0.3803132079 0.0146555424 0.0008100892 0.3005528059 0.0091437980 0.0004643262 0.3914363475 0.0230230265 0.0123086895 0.3185503458 0.0330098730 0.0214193977 0.3838972620 0.0530795313 0.0142980162 0.4299990022 0.0678698958 0.0147367578 0.4483481022 0.0885284511 0.0259942325 0.3863535257 0.0807627578 0.0141320364 0.2643211441 0.0531445153 0.0007492593 0.2577820215 0.0368634471 0.0001323311 0.3948561161 0.0467596458 0.0318128680 0.4466492506 0.0177961697 0.0232659314 0.4343835245 0.0199972448 0.0187825561 0.3704004886 0.0777086154 0.0178971965 0.2448282163 0.0206849609 0.0190584503 0.2513352743 0.0062827877 0.0006206566 0.2675810735 0.0050454501 0.0102268044 0.1804454288 0.0076999227 0.0001168548 0.1328177201 0.0187600479 -0.0003488654 0.0249692744 0.0220578645 0.0130827519 0.3391018756 0.0234358627 0.0031313183 0.4173478141 0.0176708087 0.0007000710 0.4096642797 0.0075013057 0.0065581335 0.4641818313 0.0192941868 0.0003236077 0.3422560008 0.0087176338 -0.0004107099 0.4049093157 0.0614997619 0.0090536846 0.3463591843 0.0764127148 0.0002200134 0.4747661426 0.0558489405 0.0192315423 0.4319918967 0.0897252018 0.0067429230 0.3905454928 0.0668036573 0.0094700315 0.4040553881 0.0390749527 0.0311758647 0.3403661422 0.0711419487 0.0278770131 0.3985886592 0.0718120489 0.0327716929 0.3348967778 0.0553382587 0.0269951085 0.1333214657 0.0533406803 0.0131389174 0.4706035731 0.0778709098 0.0248383963 0.2349697069 0.0736079891 -0.0000027451 0.2259874745 0.0841077524 0.0043155524 0.2443168353 0.0907125545 0.0001934327 0.1925699640 0.0156120423 0.0076412963 0.1365795666 0.0556586762 0.0093845293 0.3162276869 0.0358159118 -0.0006722186 0.3489799753 0.0343661923 -0.0002925335 0.2645358339 0.0582905214 0.0047153553 0.1945908740 0.0360082785 0.0096751864 0.4468080081 0.0194977130 0.0000470293 0.3469720711 0.0732564757 0.0110897687 0.3770339456 0.0815477607 0.0175327640 0.3995655926 0.0942613613 0.0093053260 0.3560357218 0.0805744356 0.0157996446 0.2673516749 0.0447077253 0.0092067868 0.4369440441 0.0661893463 0.0083915773 0.4041845044 0.0620743166 0.0304133551 0.1464590414 0.0392467255 0.0163004106 0.2472618646 0.0399631668 0.0164473931 0.1002945113 0.0734343580 0.0109987316 0.3366281688 0.0789624689 0.0301452370 0.2052513365 0.0477574235 0.0009529374 0.2082249562 0.0609337698 0.0005846787 0.1713628446 0.0855441688 0.0004076202 0.1678665893 0.0074892569 0.0038605733 0.2101063900 0.0279960544 0.0049786208 0.3140423095 0.0365298106 0.0049931026 0.3464003318 0.0436840927 0.0110878315 0.2792346274 0.0326743558 0.0004181491 0.1787206750 0.0185031016 0.0041016821 0.3323335690 0.0537236153 0.0038928480 0.3361831060 0.0784426872 0.0212313822 0.4828709287 0.0667688472 0.0124380955 0
[...]
      <PointData Scalars="smoothLength">
        <DataArray type="Float32" Name="smoothLength" format="ascii">
 0.0065000000 0.0065000000 0.0065000000 0.0065000000 0.0065000000 0.0065000000 0.0065000000 0.0065000000 0.0065000000 0.0065000000 0.0065000000 0.0065000000 0.0065000000 0.0065000000 0.0065000000 0.0065000000 0.0065000000 0.0065000000 0.0065000000 0.0065000000 0.0065000000 0.0065000000 0.0065000000 0.0065000000 0.0065000000 0.0065000000 0.0065000000 0.0065000000 0.0065000000 0.0065000000 0.0065000000 0.0065000000 0.0065000000 0.0065000000 0.0065000000 0.0065000000 0.0065000000 0.0065000000 0.0065000000 0.0065000000 0.0065000000 0.0065000000 0.0065000000 0.0065000000 0.0065000000 0.0065000000 0.0065000000 0.0065000000 0.0065000000 0.0065000000 0.0065000000 0.0065000000 0.0065000000 0.0065000000 0.0065000000 0.0065000000 0.0065000000 0.0065000000 0.0065000000 0.0065000000 0.0065000000 0.0065000000 0.0065000000 0.0065000000 0.0065000000 0.0065000000 0.0065000000 0.0065000000 0.0065000000 0.0065000000 0.0065000000 0.0065000000 0.0065000000 0.0065000000 0.0065000000 0.0065000000 0.0065000000 0.0065000000 0.0065000000 0.0065000000 0.0065000000 0.0065000000 0.0065000000 0.0065000000 0.0065000000 0.0065000000 0.0065000000 0.0065000000 0.0065000000 0.0065000000 0.0065000000 0.0065000000 0.0065000000 0.0065000000 0.0065000000 0.0065000000 0.0065000000 0.0065000000 0.0065000000 0.0065000000 0.0065000000 0.0065000000 0.0065000000 0.0065000000 0.0065000000 0.0065000000 0.0065000000 0.0065000000 0.0065000000 0.0065000000 0.0065000000 0.0065000000 0.0065000000 0.0065000000 0.0065000000 0.0065000000 0.0065000000 0.0065000000 0.0065000000 0.0065000000 0.0065000000 0.0065000000 0.0065000000 0.0065000000 0.0065000000 0.0065000000 0.0065000000 0.0065000000 0.0065000000 0.0065000000 0.0065000000 0.0065000000 0.0065000000 0.0065000000 0.0065000000 0.0065000000 0.0065000000 0.0065000000 0.0065000000 0.0065000000 0.0065000000 0.0065000000 0.0065000000 0.0065000000 0.0065000000 0.0065000000 0.0065000000 0.0065000000 0.0065000000 0.0065000000 0.0065000000 0.0065000000 0.0065000000 0.0065000000 0.0065000000 0.0065000000 0.0065000000 0.0065000000 0.0065000000 0.0065000000 0.0065000000 0.0065000000 0.0065000000 0.0065000000 0.0065000000 0.0065000000 0.0065000000 0.0065000000 0.0065000000 0.0065000000 0.0065000000 0.0065000000 0.0065000000 0.0065000000 0.0065000000 0.0065000000 0.0065000000 0.0065000000 0.0065000000 0.0065000000 0.0065000000 0.0065000000 0.0065000000 0.0065000000 0.0065000000 0.0065000000 0.0065000000 0.0065000000 0.0065000000 0.0065000000 0.0065000000 0.0065000000 0.0065000000 0.0065000000 0.0065000000 0.0065000000 0.0065000000 0.0065000000 0.0065000000 0.0065000000 0.0065000000 0.0065000000 0.0065000000 0.0065000000 0.0065000000 0.0065000000 0.0065000000 0.0065000000 0.0065000000 0.0065000000 0.0065000000 0.0065000000 0.0065000000 0.0065000000 0.0065000000 0.0065000000 0.0065000000 0.0065000000 0.0065000000 0.0065000000 0.0065000000 0.0065000000 0.0065000000 0.0065000000 0.0065000000 0.0065000000 0.0065000000 0.0065000000 0.0065000000 0.0065000000 0.0065000000 0.0065000000 0.0065000000 0.0065000000 0.0065000000 0.0065000000 0.0065000000 0.0065000000 0.0065000000 0.0065000000 0.0065000000 0.0065000000 0.0065000000 0.0065000000 0.0065000000 0.0065000000 0.0065000000 0.0065000000 0.0065000000 0.0065000000 0.0065000000 0.0065000000 0.0065000000 0.0065000000 0.0065000000 0.0065000000 0.0065000000 0.0065000000 0.0065000000 0.0065000000 0.0065000000 0.0065000000 0.0065000000 0.0065000000 0.0065000000 0.0065000000 0.0065000000 0.0065000000 0.0065000000 0.0065000000 0.0065000000 0.0065000000 0.0065000000 0.0065000000 0.0065000000 0.0065000000 0.0065000000 0.0065000000 0.0065000000 0.0065000000 0.0065000000 0.0065000000 0.0065000000 0.0065000000 0.0065000000 0.0065000000 0.0065000000 0.0065000000 0.0065000000 0.0065000000 0.0065000000 0.0065000000 0.0065000000 0.0065000000 0.0065000000 0.0065000000 0.0065000000 0.0065000000 0.0065000000 0.0065000000 0.0065000000 0.0065000000 0.0065000000 0.0065000000 0.0065000000 0.0065000000 0.0065000000 0.0065000000 0.0065000000 0.0065000000 0.0065000000 0.0065000000 0.0065000000 0.0065000000 0.0065000000 0.0065000000 0.0065000000 0.0065000000 0.0065000000 0.0065000000 0.0065000000 0.0065000000 0.0065000000 0.0065000000 0.0065000000 0.0065000000 0.0065000000 0.0065000000 0.0065000000 0.0065000000 0.0065000000 0.0065000000 0.0065000000 0.0065000000 0.0065000000 0.0065000000 0.0065000000 0.0065000000 0.0065000000 0.0065000000 0.0065000000 0.0065000000 0.0065000000 0.0065000000 0.0065000000 0.0065000000 0.0065000000 0.0065000000 0.0065000000 0.0065000000 0.0065000000 0.0065000000 0.0065000000 0.0065000000 0.0065000000 0.0065000000 0.0065000000 0.0065000000 0.0065000000 0.0065000000 0.0065000000 0.0065000000 0.0065000000 0.0065000000 0.0065000000 0.0065000000 0.0065000000 0.0065000000 0.0065000000 0.0065000000 0.0065000000 0.0065000000 0.0065000000 0.0065000000 0.0065000000 0.0065000000 0.0065000000 0.0065000000 0.0065000000 0.0065000000 0.0065000000 0.0065000000 0.0065000000 0.0065000000 0.0065000000 0.0065000000 0.0065000000 0.0065000000 0.0065000000 0.0065000000 0.0065000000 0.0065000000 0.0065000000 0.0065000000 0.0065000000 0.0065000000 0.0065000000 0.0065000000 0.0065000000 0.0065000000 0.0065000000 0.0065000000 0.0065000000 0.0065000000 0.0065000000 0.0065000000 0.0065000000 0.0065000000 0.0065000000 0.0065000000 0.0065000000 0.0065000000 0.0065000000 0.0065000000 0.0065000000 0.0065000000 0.0065000000 0.0065000000 0.0065000000 0.0065000000 0.0065000000 0.0065000000 0.0065000000 0.0065000000 0.0065000000 0.0065000000 0.0065000000 0.0065000000 0.0065000000 0.0065000000 0.0065000000 0.0065000000 0.0065000000 0.0065000000 0.0065000000 0.0065000000 0.0065000000 0.0065000000 0.0065000000 0.0065000000 0.0065000000 0.0065000000 0.0065000000 0.0065000000 0.0065000000 0.0065000000 0.0065000000 0.0065000000 0.0065000000 0.0065000000 0.0065000000 0.0065000000 0.0065000000 0.0065000000 0.0065000000 0.0065000000 0.0065000000 0.0065000000 0.0065000000 0.0065000000 0.0065000000 0.0065000000 0.0065000000 0.0065000000 0.0065000000 0.0065000000 0.0065000000 0.0065000000 0.0065000000 0.0065000000 0.0065000000 0.0065000000 0.0065000000 0.0065000000 0.0065000000 0.0065000000 0.0065000000 0.0065000000 0.0065000000 0.0065000000 0.0065000000 0.0065000000 0.0065000000 0.0065000000 0.0065000000 0.0065000000 0.0065000000 0.0065000000 0.0065000000 0.0065000000 0.0065000000 0.0065000000 0.0065000000 0.0065000000 0.0065000000 0.0065000000 0.0065000000 0.0065000000 0.0065000000 0.0065000000 0.0065000000 0.0065000000 0.0065000000 0.0065000000 0.0065000000 0.0065000000 0.0065000000 0.0065000000 0.0065000000 0.0065000000 0.0065000000 0.0065000000 0.0065000000 0.0065000000 0.0065000000 0.0065000000 0.0065000000 0.0065000000 0.0065000000 0.0065000000 0.0065000000 0.0065000000 0.0065000000 0.0065000000 0.0065000000 0.0065000000 0.0065000000 0.0065000000 0.0065000000 0.0065000000 0.0065000000 0.0065000000 0.0065000000 0.0065000000 0.0065000000 0.0065000000 0.0065000000 0.0065000000 0.0065000000 0.0065000000 0.0065000000 0.0065000000 0.0065000000 0.0065000000 0.0065000000 0.0065000000 0.0065000000 0.0065000000 0.0065000000 0.0065000000 0.0065000000 0.0065000000 0.0065000000 0.0065000000 0.0065000000 0.0065000000 0.0065000000 0.0065000000 0.0065000000 0.0065000000 0.0065000000 0.0065000000 0.0065000000 0.0065000000 0.0065000000 0.0065000000 0.0065000000 0.0065000000 0.0065000000 0.0065000000 0.0065000000 0.0065000000 0.0065000000 0.0065000000 0.0065000000 0.0065000000 0.0065000000 0.0065000000 0.0065000000 0.0065000000 0.0065000000 0.0065000000 0.0065000000 0.0065000000 0.0065000000 0.0065000000 0.0065000000 0.0065000000 0.0065000000 0.0065000000 0.0065000000 0.0065000000 0.0065000000 0.0065000000 0.0065000000 0.0065000000 0.0065000000 0.0065000000 0.0065000000 0.0065000000 0.0065000000 0.0065000000 0.0065000000 0.0065000000 0.0065000000 0.0065000000 0.0065000000 0.0065000000 0.0065000000 0.0065000000 0.0065000000 0.0065000000 0.0065000000 0.0065000000 0.0065000000 0.0065000000 0.0065000000 0.0065000000 0.0065000000 0.0065000000 0.0065000000 0.0065000000 0.0065000000 0.0065000000 0.0065000000 0.0065000000 0.0065000000 0.0065000000 0.0065000000 0.0065000000 0.0065000000 0.0065000000 0.0065000000 0.0065000000 0.0065000000 0.0065000000 0.0065000000 0.0065000000 0.0065000000 0.0065000000 0.0065000000 0.0065000000 0.0065000000 0.0065000000 0.0065000000 0.0065000000 0.0065000000 0.0065000000 0.0065000000 0.0065000000 0.0065000000 0.0065000000 0.0065000000 0.0065000000 0.0065000000 0.0065000000 0.0065000000 0.0065000000 0.0065000000 0.0065000000 0.0065000000 0.0065000000 0.0065000000 0.0065000000 0.0065000000 0.0065000000 0.0065000000 0.0065000000 0.0065000000 0.0065000000 0.0065000000 0.0065000000 0.0065000000 0.0065000000 0.0065000000 0.0065000000 0.0065000000 0.0065000000 0.0065000000 0.0065000000 0.0065000000 0.0065000000 0.0065000000 0.0065000000 0.0065000000 0.0065000000 0.0065000000 0.0065000000 0.0065000000 0.0065000000 0.0065000000 0.0065000000 0.0065000000 0.0065000000 0.0065000000 0.0065000000 0.0065000000 0.0065000000 0.0065000000 0.0065000000 0.0065000000 0.0065000000 0.0065000000 0.0065000000 0.0065000000 0.0065000000 0.0065000000 0.0065000000 0.0065000000 0.0065000000 0.0065000000 0.0065000000 0.0065000000 0.0065000000 0.0065000000 0.0065000000 0.0065000000 0.0065000000 0.0065000000 0.0065000000 0.0065000000 0.0065000000 0.0065000000 0.0065000000 0.0065000000 0.0065000000 0.0065000000 0.0065000000 0.0065000000 0.0065000000 0.0065000000 0.0065000000 0.0065000000 0.0065000000 0.0065000000 0.0065000000 0.0065000000 0.0065000000 0.0065000000 0.0065000000 0.0065000000 0.0065000000 0.0065000000 0.0065000000 0.0065000000 0.0065000000 0.0065000000 0.0065000000 0.0065000000 0.0065000000 0.0065000000 0.0065000000 0.0065000000 0.0065000000 0.0065000000 0.0065000000 0.0065000000 0.0065000000 0.0065000000 0.0065000000 0.0065000000 0.0065000000 0.0065000000 0.0065000000 0.0065000000 0.0065000000 0.0065000000 0.0065000000 0.0065000000 0.0065000000 0.0065000000 0.0065000000 0.0065000000 0.0065000000 0.0065000000 0.0065000000 0.0065000000 0.0065000000 0.0065000000 0.0065000000 0.0065000000 0.0065000000 0.0065000000 0.0065000000 0.0065000000 0.0065000000 0.0065000000 0.0065000000 0.0065000000 0.0065000000 0.0065000000 0.0065000000 0.0065000000 0.0065000000 0.0065000000 0.0065000000 0.0065000000 0.0065000000 0.0065000000 0.0065000000 0.0065000000 0.0065000000 0.0065000000 0.0065000000 0.0065000000 0.0065000000 0.0065000000 0.0065000000 0.0065000000 0.0065000000 0.0065000000 0.0065000000 0.0065000000 0.0065000000 0.0065000000 0.0065000000 0.0065000000 0.0065000000 0.0065000000 0.0065000000 0.0065000000 0.0065000000 0.0065000000 0.0065000000 0.0065000000 0.0065000000 0.0065000000 0.0065000000 0.0065000000 0.0065000000 0.0065000000 0.0065000000 0.0065000000 0.0065000000 0.0065000000 0.0065000000 0.0065000000 0.0065000000 0.0065000000 0.0065000000 0.0065000000 0.0065000000 0.0065000000 0.0065000000 0.0065000000 0.0065000000 0.0065000000 0.0065000000 0.0065000000 0.0065000000 0.0065000000 0.0065000000 0.0065000000 0.0065000000 0.0065000000 0.0065000000 0.0065000000 0.0065000000 0.0065000000 0.0065000000 0.0065000000 0.0065000000 0.0065000000 0.0065000000 0.0065000000 0.0065000000 0.0065000000 0.0065000000 0.0065000000 0.0065000000 0.0065000000 0.0065000000 0.0065000000 0.0065000000 0.0065000000 0.0065000000 0.0065000000 0.0065000000 0.0065000000 0.0065000000 0.0065000000 0.0065000000 0.0065000000 0.0065000000 0.0065000000 0.0065000000 0.0065000000 0.0065000000 0.0065000000 0.0065000000 0.0065000000 0.0065000000 0.0065000000 0.0065000000 0.0065000000 0.0065000000 0.0065000000 0.0065000000 0.0065000000 0.0065000000 0.0065000000 0.0065000000 0.0065000000 0.0065000000 0.0065000000 0.0065000000 0.0065000000 0.0065000000 0.0065000000 0.0065000000 0.0065000000 0.0065000000 0.0065000000 0.0065000000 0.0065000000 0.0065000000 0.0065000000 0.0065000000 0.0065000000 0.0065000000 0.0065000000 0.0065000000 0.0065000000 0.0065000000 0.0065000000 0.0065000000 0.0065000000 0.0065000000 0.0065000000 0.0065000000 0.0065000000 0.0065000000 0.0065000000 0.0065000000 0.0065000000 0.0065000000 0.0065000000 0.0065000000 0.0065000000 0.0065000000 0.0065000000 0.0065000000 0.0065000000 0.0065000000 0.0065000000 0.0065000000 0.0065000000 0.0065000000 0.0065000000 0.0065000000 0.0065000000 0.0065000000 0.0065000000 0.0065000000 0.0065000000 0.0065000000 0.0065000000 0.0065000000 0.0065000000 0.0065000000 0.0065000000 0.0065000000 0.0065000000 0.0065000000 0.0065000000 0.0065000000 0.0065000000 0.0065000000 0.0065000000 0.0065000000 0.0065000000 0.0065000000 0.0065000000 0.0065000000 0.0065000000 0.0065000000 0.0065000000 0.0065000000 0.0065000000 0.0065000000 0.0065000000 0.0065000000 0.0065000000 0.0065000000 0.0065000000 0.0065000000 0.0065000000 0.0065000000 0.0065000000 0.0065000000 0.0065000000 0.0065000000 0.0065000000 0.0065000000 0.0065000000 0.0065000000 0.0065000000 0.0065000000 0.0065000000 0.0065000000 0.0065000000 0.0065000000 0.0065000000 0.0065000000 0.0065000000 0.0065000000 0.0065000000 0.0065000000 0.0065000000 0.0065000000 0.0065000000 0.0065000000 0.0065000000 0.0065000000 0.0065000000 0.0065000000 0.0065000000 0.0065000000 0.0065000000 0.0065000000 0.0065000000 0.0065000000 0.0065000000 0.0065000000 0.0065000000 0.0065000000 0.0065000000 0.0065000000 0.0065000000 0.0065000000 0.0065000000 0.0065000000 0.0065000000 0.0065000000 0.0065000000 0.0065000000 0.0065000000 0.0065000000 0.0065000000 0.0065000000 0.0065000000 0.0065000000 0.0065000000 0.0065000000 0.0065000000 0.0065000000 0.0065000000 0.0065000000 0.0065000000 0.0065000000 0.0065000000 0.0065000000 0.0065000000 0.0065000000 0.0065000000 0.0065000000 0.0065000000 0.0065000000 0.0065000000 0.0065000000 0.0065000000 0.0065000000 0.0065000000 0.0065000000 0.0065000000 0.0065000000 0.0065000000 0.0065000000 0.0065000000 0.0065000000 0.0065000000 0.0065000000 0.0065000000 0.0065000000 0.0065000000 0.0065000000 0.0065000000 0.0065000000 0.0065000000 0.0065000000 0.0065000000 0.0065000000 0.0065000000 0.0065000000 0.0065000000 0.0065000000 0.0065000000 0.0065000000 0.0065000000 0.0065000000 0.0065000000 0.0065000000 0.0065000000 0.0065000000 0.0065000000 0.0065000000 0.0065000000 0.0065000000 0.0065000000 0.0065000000 0.0065000000 0.0065000000 0.0065000000 0.0065000000 0.0065000000 0.0065000000 0.0065000000 0.0065000000 0.0065000000 0.0065000000 0.0065000000 0.0065000000 0.0065000000 0.0065000000 0.0065000000 0.0065000000 0.0065000000 0.0065000000 0.0065000000 0.0065000000 0.0065000000 0.0065000000 0.0065000000 0.0065000000 0.0065000000 0.0065000000 0.0065000000 0.0065000000 0.0065000000 0.0065000000 0.0065000000 0.0065000000 0.0065000000 0.0065000000 0.0065000000 0.0065000000 0.0065000000 0.0065000000 0.0065000000 0.0065000000 0.0065000000 0.0065000000 0.0065000000 0.0065000000 0.0065000000 0.0065000000 0.0065000000 0.0065000000 0.0065000000 0.0065000000 0.0065000000 0.0065000000 0.0065000000 0.0065000000 0.0065000000 0.0065000000 0.0065000000 0.0065000000 0.0065000000 0.0065000000 0.0065000000 0.0065000000 0.0065000000 0.0065000000 0.0065000000 0.0065000000 0.0065000000 0.0065000000 0.0065000000 0.0065000000 0.0065000000 0.0065000000 0.0065000000 0.0065000000 0.0065000000 0.0065000000 0.0065000000 0.0065000000 0.0065000000 0.0065000000 0.0065000000 0.0065000000 0.0065000000 0.0065000000 0.0065000000 0.0065000000 0.0065000000 0.0065000000 0.0065000000 0.0065000000 0.0065000000 0.0065000000 0.0065000000 0.0065000000 0.0065000000 0.0065000000 0.0065000000 0.0065000000 0.0065000000 0.0065000000 0.0065000000 0.0065000000 0.0065000000 0.0065000000 0.0065000000 0.0065000000 0.0065000000 0.0065000000 0.0065000000 0.0065000000 0.0065000000 0.0065000000 0.0065000000 0.0065000000 0.0065000000 0.0065000000 0.0065000000 0.0065000000 0.0065000000 0.0065000000 0.0065000000 0.0065000000 0.0065000000 0.0065000000 0.0065000000 0.0065000000 0.0065000000 0.0065000000 0.0065000000 0.0065000000 0.0065000000 0.0065000000 0.0065000000 0.0065000000 0.0065000000 0.0065000000 0.0065000000 0.0065000000 0.0065000000 0.0065000000 0.0065000000 0.0065000000 0.0065000000 0.0065000000 0.0065000000 0.0065000000 0.0065000000 0.0065000000 0.0065000000 0.0065000000 0.0065000000 0.0065000000 0.0065000000 0.0065000000 0.0065000000 0.0065000000 0.0065000000 0.0065000000 0.0065000000 0.0065000000 0.0065000000 0.0065000000 0.0065000000 0.0065000000 0.0065000000 0.0065000000 0.0065000000 0.0065000000 0.0065000000 0.0065000000 0.0065000000 0.0065000000 0.0065000000 0.0065000000 0.0065000000 0.0065000000 0.0065000000 0.0065000000 0.0065000000 0.0065000000 0.0065000000 0.0065000000 0.0065000000 0.0065000000 0.0065000000 0.0065000000 0.0065000000 0.0065000000 0.0065000000 0.0065000000 0.0065000000 0.0065000000 0.0065000000 0.0065000000 0.0065000000 0.0065000000 0.0065000000 0.0065000000 0.0065000000 0.0065000000 0.0065000000 0.0065000000 0.0065000000 0.0065000000 0.0065000000 0.0065000000 0.0065000000 0.0065000000 0.0065000000 0.0065000000 0.0065000000 0.0065000000 0.0065000000 0.0065000000 0.0065000000 0.0065000000 0.0065000000 0.0065000000 0.0065000000 0.0065000000 0.0065000000 0.0065000000 0.0065000000 0.0065000000 0.0065000000 0.0065000000 0.0065000000 0.0065000000 0.0065000000 0.0065000000 0.0065000000 0.0065000000 0.0065000000 0.0065000000 0.0065000000 0.0065000000 0.0065000000 0.0065000000 0.0065000000 0.0065000000 0.0065000000 0.0065000000 0.0065000000 0.0065000000 0.0065000000 0.0065000000 0.0065000000 0.0065000000 0.0065000000 0.0065000000 0.0065000000 0.0065000000 0.0065000000 0.0065000000 0.0065000000 0.0065000000 0.0065000000 0.0065000000 0.0065000000 0.0065000000 0.0065000000 0.0065000000 0.0065000000 0.0065000000 0.0065000000 0.0065000000 0.0065000000 0.0065000000 0.0065000000 0.0065000000 0.0065000000 0.0065000000 0.0065000000 0.0065000000 0.0065000000 0.0065000000 0.0065000000 0.0065000000 0.0065000000 0.0065000000 0.0065000000 0.0065000000 0.0065000000 0.0065000000 0.0065000000 0.0065000000 0.0065000000 0.0065000000 0.0065000000 0.0065000000 0.0065000000 0.0065000000 0.0065000000 0.0065000000 0.0065000000 0.0065000000 0.0065000000 0.0065000000 0.0065000000 0.0065000000 0.0065000000 0.0065000000 0.0065000000 0.0065000000 0.0065000000 0.0065000000 0.0065000000 0.0065000000 0.0065000000 0.0065000000 0.0065000000 0.0065000000 0.0065000000 0.0065000000 0.0065000000 0.0065000000 0.0065000000 0.0065000000 0.0065000000 0.0065000000 0.0065000000 0.0065000000 0.0065000000 0.0065000000 0.0065000000 0.0065000000 0.0065000000 0.0065000000 0.0065000000 0.0065000000 0.0065000000 0.0065000000 0.0065000000 0.0065000000 0.0065000000 0.0065000000 0.0065000000 0.0065000000 0.0065000000 0.0065000000 0.0065000000 0.0065000000 0.0065000000 0.0065000000 0.0065000000 0.0065000000 0.0065000000 0.0065000000 0.0065000000 0.0065000000 0.0065000000 0.0065000000 0.0065000000 0.0065000000 0.0065000000 0.0065000000 0.0065000000 0.0065000000 0.0065000000 0.0065000000 0.0065000000 0.0065000000 0.0065000000 0.0065000000 0.0065000000 0.0065000000 0.0065000000 0.0065000000 0.0065000000 0.0065000000 0.0065000000 0.0065000000 0.0065000000 0.0065000000 0.0065000000 0.0065000000 0.0065000000 0.0065000000 0.0065000000 0.0065000000 0.0065000000 0.0065000000 0.0065000000 0.0065000000 0.0065000000 0.0065000000 0.0065000000 0.0065000000 0.0065000000 0.0065000000 0.0065000000 0.0065000000 0.0065000000 0.0065000000 0.0065000000 0.0065000000 0.0065000000 0.0065000000 0.0065000000 0.0065000000 0.0065000000 0.0065000000 0.0065000000 0.0065000000 0.0065000000 0.0065000000 0.0065000000 0.0065000000 0.0065000000 0.0065000000 0.0065000000 0.0065000000 0.0065000000 0.0065000000 0.0065000000 0.0065000000 0.0065000000 0.0065000000 0.0065000000 0.0065000000 0.0065000000 0.0065000000 0.0065000000 0.0065000000 0.0065000000 0.0065000000 0.0065000000 0.0065000000 0.0065000000 0.006500000