<?xml version="1.0"?>
<VTKFile type="UnstructuredGrid" version="0.1" byte_order="LittleEndian">
  <UnstructuredGrid>
    <FieldData>
      <DataArray type="Float32" Name="TIME"  NumberOfTuples="1" format="ascii"> 1.5988987457 </DataArray>
      <DataArray type="Int32"   Name="STEP"  NumberOfTuples="1" format="ascii"> 21440 </DataArray>
    </FieldData>
    <Piece NumberOfPoints="18081" NumberOfCells="18081">
      <Points>
        <DataArray type="Float32" NumberOfComponents="3" format="ascii">
 0.0789833686 0.0217959601 0.0068448080 0.0846031789 0.0035840076 0.0042338647 0.0599426610 0.0005089863 0.0149832502 0.1491773719 0.0009639030 0.0003887204 0.1319209179 0.0072720918 0.0168048227 0.1035055401 0.0026203772 0.0001519922 0.3158760161 0.0050713700 -0.0004696989 0.3636482691 0.0179146412 -0.0006504906 0.2097513875 0.0094554072 0.0277658355 0.1211397512 0.0052222979 0.0245422320 0.1809926369 0.0212014500 -0.0000913793 0.3278161953 0.0473593961 0.0065297084 0.4075436026 0.0217998943 -0.0003548192 0.3478869813 0.0506977423 0.0118567273 0.2211407138 0.0315138275 0.0111244323 0.4312888420 0.0356543166 -0.0000194218 0.2460185114 0.0048317804 0.0027789390 0.2145774788 0.0163420854 0.0086342642 0.1073171223 0.0157884666 0.0284556205 0.2241529007 0.0029659350 0.0292054205 0.2019756117 0.0422472755 0.0325997916 0.0613836219 0.0075804952 0.0005527860 0.0563818562 0.0056392163 -0.0001745751 0.0016116621 0.0226332397 0.0085635123 0.0306335159 0.0129174833 0.0170755571 0.1709434074 0.0002456723 0.0012756413 0.2341349505 0.0220710477 -0.0003320092 0.2303348405 0.0176445443 -0.0017660435 0.4108756759 0.0005192946 -0.0002198340 0.2065168595 0.0097315314 0.0288412122 0.4679805425 0.0418458057 0.0016760002 0.3913850722 0.0294749282 0.0002991154 0.4027632330 0.0374609211 0.0002615037 0.3946720775 0.0623717633 0.0134542292 0.3771458722 0.0201740757 0.0135047100 0.2430439406 0.0121061683 0.0025516651 0.4174273764 0.0047976901 0.0023932235 0.2156215409 0.0278255242 0.0206878246 0.1036325774 0.0094787170 0.0259524414 0.1262164291 0.0140299296 0.0293622533 0.0435919533 0.0049300045 0.0122063635 0.2400003565 0.0356091838 0.0170329838 0.1160758415 0.0202189158 -0.0000241195 0.0960234354 0.0002942165 0.0025298480 0.0924911249 0.0008996176 -0.0002284872 0.0624992219 0.0157304191 0.0138518302 0.1308395304 0.0018894637 0.0180049002 0.2537226950 0.0155842181 0.0003350061 0.3587128467 0.0258934689 0.0011387539 0.1594288757 0.0334891000 0.0271046751 0.1401443492 0.0319099087 0.0276181538 0.2488862219 0.0184388768 -0.0003077450 0.4778461842 0.0250280449 0.0029582047 0.3823271924 0.0438116439 0.0122308363 0.3918957980 0.0485874090 0.0042245441 0.2245154713 0.0358761766 0.0132990302 0.3827134689 0.0366942318 0.0100597231 0.1722197557 0.0005727470 0.0134148471 0.1994899865 0.0104167430 0.0300718163 0.2009862593 0.0105997985 0.0328094059 0.3583769626 0.0010388975 0.0147188649 0.2292119118 0.0217209108 0.0098555687 0.2113123822 0.0438856843 0.0302993742 0.0682805340 0.0149341061 0.0037194858 0.1111564035 0.0175479924 -0.0004957050 0.0724699989 0.0105769769 0.0215547514 0.1227491661 0.0092251855 0.0229097667 0.1778786239 0.0058506211 0.0058121786 0.2951032920 0.0049540708 -0.0007967687 0.3516410417 0.0136333472 0.0001089353 0.1924701967 0.0247711204 0.0089983026 0.4709440858 0.0001734080 -0.0010755812 0.4866546024 0.0344032390 0.0107364401 0.4150717587 0.0533766323 0.0028862718 0.3449745556 0.0513495617 0.0077138929 0.4102384357 0.0407198909 0.0109608067 0.3734288873 0.0303972078 0.0141214932 0.1830784887 0.0205375065 0.0269044346 0.4966154661 0.0424708305 0.0079224596 0.0633123667 0.0223971808 0.0164720819 0.1438020268 0.0273813721 0.0204752206 0.0474140118 0.0225975471 0.0271375373 0.3534653235 0.0519739837 0.0152904247 0.2379008353 0.0237702167 0.0185052304 0.0832717851 0.0227449886 0.0026787795 0.1096792539 0.0002620330 0.0059796985 0.1393913497 0.0011955071 0.0116326581 0.1087544491 0.0000373267 0.0003350702 0.0807805105 0.0070550594 -0.0001441125 0.1726046803 0.0349810084 0.0157366834 0.2442890379 0.0345310069 0.0000042053 0.2021559392 0.0222756743 0.0297776068 0.1568165892 0.0387492638 0.0297426775 0.4393165157 0.0129791895 -0.0004713641 0.4991524913 0.0508113682 0.0056128837 0.3565327275 0.0449548498 0.0078626549 0.3810285597 0.0412119004 0.0074209717 0.3676693609 0.0588426700 0.0149658379 0.2159814576 0.0369659233 0.0105589203 0.1026059157 0.0276716910 0.0271599738 0.2038768975 0.0212540385 0.0091458955 0.1694271602 0.0335542132 0.0322450993 0.3391592704 0.0069822452 0.0072205466 0.2345453840 0.0297180702 0.0258508811 0.3598696742 0.0528453933 0.0164609321 0.0728081337 0.0188876348 -0.0004953734 0.0899232270 0.0269805433 0.0081408291 0.1173377376 0.0010223580 0.0223758542 0.0686191913 0.0077516388 0.0130976918 0.1238297095 0.0005360409 0.0084290015 0.1905226565 0.0281853667 0.0011381963 0.3494913028 0.0106916945 -0.0011148632 0.4410579091 0.0005595510 -0.0009682033 0.1786612288 0.0366228575 0.0200982468 0.2153813239 0.0168656572 0.0029512732 0.3349998218 0.0405153559 0.0065428638 0.3492695806 0.0560315468 0.0069898784 0.2389960378 0.0688195373 0.0056898037 0.4853911511 0.0528457126 0.0058778585 0.4058545393 0.0276184161 -0.0004426105 0.1275299283 0.0241301435 0.0289106563 0.1789392329 0.0324023885 0.0010914837 0.0144108577 0.0042693169 0.0147430663 0.0559940640 0.0403038124 0.0202506647 0.2177730828 0.0367485576 0.0260345285 0.2317774245 0.0259232435 0.0239524642 0.1362332458 0.0316797971 0.0044051877 0.1120059461 0.0159073460 0.0072510591 0.0998720503 0.0004071920 0.0003391283 0.0352698449 0.0142686712 0.0118916501 0.1150228213 0.0255772927 0.0198617376 0.1925210106 0.0068117736 0.0000385016 0.4262786842 0.0161190567 -0.0004805894 0.1765521931 0.0406409376 0.0149787108 0.1972182466 0.0213805576 0.0016087380 0.4769059168 0.0399724615 0.0027835763 0.3881424744 0.0136197796 0.0057777456 0.4055929595 0.0578569028 0.0013624516 0.3361156922 0.0555165578 0.0084143598 0.3858175128 0.0569603462 0.0112170719 0.1882754316 0.0345467435 0.0220250707 0.1909914321 0.0387851974 0.0223032353 0.1050714652 0.0195518458 0.0198712192 0.1550599011 0.0356259048 0.0324056155 0.0040270424 0.0069399143 0.0264997773 0.3692208667 0.0645350008 0.0164146894 0.1739194484 0.0375286866 0.0343724961 0.1215396204 0.0202350560 0.0003636542 0.0284397044 0.0145053008 0.0237244100 0.1045512020 0.0367014732 0.0177491126 0.0872821785 0.0003934638 0.0113480103 0.1065288868 0.0154708500 -0.0001020208 0.1592579557 0.0468340425 0.0022300772 0.3832973419 0.0248071390 0.0001537893 0.2005125359 0.0364254104 -0.0006779189 0.1956055221 0.0297744395 0.0028294212 0.1739205051 0.0426390971 0.0215662923 0.3333704699 0.0587209823 0.0081134672 0.3873647093 0.0497329011 0.0042110035 0.3533892470 0.0619276432 0.0078136886 0.1990844748 0.0316139236 0.0063605309 0.3655763703 0.0706762725 0.0159960393 0.1863184961 0.0408591556 0.0201019293 0.0260561045 0.0136247011 0.0190516166 0.0043120660 0.0217987065 0.0136645966 0.3993355335 0.0600896832 0.0145577847 0.1061915514 0.0481393121 0.0261505993 0.2064303275 0.0513447168 0.0265961157 0.1258828581 0.0177829856 0.0001200753 0.1120340349 0.0610029821 0.0227744029 0.0700801833 -0.0000361651 0.0120705477 0.0743053239 0.0048483102 0.0129937938 0.0589388211 0.0205414268 0.0166638846 0.2170012417 0.0314563804 0.0016539990 0.3518280928 0.0182068216 0.0012169823 0.2192535267 0.0244689163 -0.0012588425 0.2447601533 0.0305633577 0.0030970068 0.1724346752 0.0433117761 0.0283473686 0.2873885634 0.0437883224 0.0022619333 0.4702171319 0.0558517265 0.0088880735 0.3355149951 0.0730170612 0.0093292625 0.3953757854 0.0704766271 0.0101631549 0.1749969151 0.0549370063 0.0074160743 0.1887758681 0.0467426403 -0.0004685244 0.1989803335 0.0441859967 0.0333872333 0.1966572519 0.0336736363 0.0243918314 0.2037118051 0.0407787673 0.0224678710 0.2797205643 0.0714082472 0.0056383789 0.1143400527 0.0065734096 0.0320598178 0.1335700238 0.0332887398 0.0001866130 0.1342962796 0.0276218421 0.0085257516 0.1174670365 0.0168344185 0.0101300124 0.0903447089 0.0225826516 0.0083149350 0.0362424596 0.0092985456 0.0148082589 0.2241814304 0.0463281957 0.0004424555 0.3864184335 0.0323092332 -0.0007273443 0.3718329338 0.0291612226 0.0003151936 0.3982829775 0.0163330340 0.0002029981 0.2260685302 0.0311884968 0.0002549582 0.4187696587 0.0443427219 0.0023077955 0.3612986890 0.0763678677 0.0061783272 0.4669585114 0.0628624282 0.0076733231 0.4130440972 0.0557535243 0.0070006913 0.2472977040 0.0684959405 0.0050442900 0.2208875488 0.0456703583 0.0242887092 0.1715114219 0.0748028654 0.0354566358 0.1974077393 0.0569436129 0.0312009218 0.1754708376 0.0542432761 0.0345400707 0.0520508246 0.0609505131 0.0271175185 0.2127898433 0.0609811833 0.0282540050 0.1300659531 0.0753861081 0.0045801561 0.1289000344 0.0829541793 0.0135305462 0.1244985615 0.0895805830 0.0067333068 0.1131946505 0.0221652273 0.0185748249 0.0678327694 0.0541064344 0.0220376335 0.2091583258 0.0511644019 0.0058854486 0.2477003358 0.0439165064 0.0020976850 0.1705102639 0.0562514757 0.0046852763 0.1274569518 0.0383672030 0.0258580130 0.4247055131 0.0289132947 -0.0003499614 0.3603177394 0.0696012662 0.0087207635 0.3716824021 0.0707862403 0.0144133405 0.4015557404 0.0702303145 0.0037074806 0.3288815549 0.0778882916 0.0078290178 0.1621237975 0.0506632656 0.0030888611 0.4598878966 0.0606179346 0.0068839798 0.2027342228 0.0524033481 0.0231215648 0.0645169158 0.0491503633 0.0296816935 0.1439603169 0.0443559291 0.0277685874 0.0409692145 0.0761620435 0.0146461930 0.1777986373 0.0742860179 0.0370117296 0.1168222779 0.0551255123 0.0144452970 0.1225849041 0.0672923826 0.0119746624 0.0994382029 0.0845504396 0.0132752135 0.1070095187 0.0120617431 0.0079994721 0.1173244002 0.0396640295 0.0165436864 0.2215799441 0.0502090907 0.0012075252 0.2930191311 0.0491302465 0.0007305764 0.1903769168 0.0409543011 0.0001947907 0.1104498491 0.0315304796 0.0164411843 0.3147926489 0.0562889284 -0.0004221804 0.3332487584 0.0761120552 0.0064085693 0.4800918294 0.0755424125 0.004
[...]
      <PointData Scalars="smoothLength">
        <DataArray type="Float32" Name="smoothLength" format="ascii">
 0.0065000000 0.0065000000 0.0065000000 0.0065000000 0.0065000000 0.0065000000 0.0065000000 0.0065000000 0.0065000000 0.0065000000 0.0065000000 0.0065000000 0.0065000000 0.0065000000 0.0065000000 0.0065000000 0.0065000000 0.0065000000 0.0065000000 0.0065000000 0.0065000000 0.0065000000 0.0065000000 0.0065000000 0.0065000000 0.0065000000 0.0065000000 0.0065000000 0.0065000000 0.0065000000 0.0065000000 0.0065000000 0.0065000000 0.0065000000 0.0065000000 0.0065000000 0.0065000000 0.0065000000 0.0065000000 0.0065000000 0.0065000000 0.0065000000 0.0065000000 0.0065000000 0.0065000000 0.0065000000 0.0065000000 0.0065000000 0.0065000000 0.0065000000 0.0065000000 0.0065000000 0.0065000000 0.0065000000 0.0065000000 0.0065000000 0.0065000000 0.0065000000 0.0065000000 0.0065000000 0.0065000000 0.0065000000 0.0065000000 0.0065000000 0.0065000000 0.0065000000 0.0065000000 0.0065000000 0.0065000000 0.0065000000 0.0065000000 0.0065000000 0.0065000000 0.0065000000 0.0065000000 0.0065000000 0.0065000000 0.0065000000 0.0065000000 0.0065000000 0.0065000000 0.0065000000 0.0065000000 0.0065000000 0.0065000000 0.0065000000 0.0065000000 0.0065000000 0.0065000000 0.0065000000 0.0065000000 0.0065000000 0.0065000000 0.0065000000 0.0065000000 0.0065000000 0.0065000000 0.0065000000 0.0065000000 0.0065000000 0.0065000000 0.0065000000 0.0065000000 0.0065000000 0.0065000000 0.0065000000 0.0065000000 0.0065000000 0.0065000000 0.0065000000 0.0065000000 0.0065000000 0.0065000000 0.0065000000 0.0065000000 0.0065000000 0.0065000000 0.0065000000 0.0065000000 0.0065000000 0.0065000000 0.0065000000 0.0065000000 0.0065000000 0.0065000000 0.0065000000 0.0065000000 0.0065000000 0.0065000000 0.0065000000 0.0065000000 0.0065000000 0.0065000000 0.0065000000 0.0065000000 0.0065000000 0.0065000000 0.0065000000 0.0065000000 0.0065000000 0.0065000000 0.0065000000 0.0065000000 0.0065000000 0.0065000000 0.0065000000 0.0065000000 0.0065000000 0.0065000000 0.0065000000 0.0065000000 0.0065000000 0.0065000000 0.0065000000 0.0065000000 0.0065000000 0.0065000000 0.0065000000 0.0065000000 0.0065000000 0.0065000000 0.0065000000 0.0065000000 0.0065000000 0.0065000000 0.0065000000 0.0065000000 0.0065000000 0.0065000000 0.0065000000 0.0065000000 0.0065000000 0.0065000000 0.0065000000 0.0065000000 0.0065000000 0.0065000000 0.0065000000 0.0065000000 0.0065000000 0.0065000000 0.0065000000 0.0065000000 0.0065000000 0.0065000000 0.0065000000 0.0065000000 0.0065000000 0.0065000000 0.0065000000 0.0065000000 0.0065000000 0.0065000000 0.0065000000 0.0065000000 0.0065000000 0.0065000000 0.0065000000 0.0065000000 0.0065000000 0.0065000000 0.0065000000 0.0065000000 0.0065000000 0.0065000000 0.0065000000 0.0065000000 0.0065000000 0.0065000000 0.0065000000 0.0065000000 0.0065000000 0.0065000000 0.0065000000 0.0065000000 0.0065000000 0.0065000000 0.0065000000 0.0065000000 0.0065000000 0.0065000000 0.0065000000 0.0065000000 0.0065000000 0.0065000000 0.0065000000 0.0065000000 0.0065000000 0.0065000000 0.0065000000 0.0065000000 0.0065000000 0.0065000000 0.0065000000 0.0065000000 0.0065000000 0.0065000000 0.0065000000 0.0065000000 0.0065000000 0.0065000000 0.0065000000 0.0065000000 0.0065000000 0.0065000000 0.0065000000 0.0065000000 0.0065000000 0.0065000000 0.0065000000 0.0065000000 0.0065000000 0.0065000000 0.0065000000 0.0065000000 0.0065000000 0.0065000000 0.0065000000 0.0065000000 0.0065000000 0.0065000000 0.0065000000 0.0065000000 0.0065000000 0.0065000000 0.0065000000 0.0065000000 0.0065000000 0.0065000000 0.0065000000 0.0065000000 0.0065000000 0.0065000000 0.0065000000 0.0065000000 0.0065000000 0.0065000000 0.0065000000 0.0065000000 0.0065000000 0.0065000000 0.0065000000 0.0065000000 0.0065000000 0.0065000000 0.0065000000 0.0065000000 0.0065000000 0.0065000000 0.0065000000 0.0065000000 0.0065000000 0.0065000000 0.0065000000 0.0065000000 0.0065000000 0.0065000000 0.0065000000 0.0065000000 0.0065000000 0.0065000000 0.0065000000 0.0065000000 0.0065000000 0.0065000000 0.0065000000 0.0065000000 0.0065000000 0.0065000000 0.0065000000 0.0065000000 0.0065000000 0.0065000000 0.0065000000 0.0065000000 0.0065000000 0.0065000000 0.0065000000 0.0065000000 0.0065000000 0.0065000000 0.0065000000 0.0065000000 0.0065000000 0.0065000000 0.0065000000 0.0065000000 0.0065000000 0.0065000000 0.0065000000 0.0065000000 0.0065000000 0.0065000000 0.0065000000 0.0065000000 0.0065000000 0.0065000000 0.0065000000 0.0065000000 0.0065000000 0.0065000000 0.0065000000 0.0065000000 0.0065000000 0.0065000000 0.0065000000 0.0065000000 0.0065000000 0.0065000000 0.0065000000 0.0065000000 0.0065000000 0.0065000000 0.0065000000 0.0065000000 0.0065000000 0.0065000000 0.0065000000 0.0065000000 0.0065000000 0.0065000000 0.0065000000 0.0065000000 0.0065000000 0.0065000000 0.0065000000 0.0065000000 0.0065000000 0.0065000000 0.0065000000 0.0065000000 0.0065000000 0.0065000000 0.0065000000 0.0065000000 0.0065000000 0.0065000000 0.0065000000 0.0065000000 0.0065000000 0.0065000000 0.0065000000 0.0065000000 0.0065000000 0.0065000000 0.0065000000 0.0065000000 0.0065000000 0.0065000000 0.0065000000 0.0065000000 0.0065000000 0.0065000000 0.0065000000 0.0065000000 0.0065000000 0.0065000000 0.0065000000 0.0065000000 0.0065000000 0.0065000000 0.0065000000 0.0065000000 0.0065000000 0.0065000000 0.0065000000 0.0065000000 0.0065000000 0.0065000000 0.0065000000 0.0065000000 0.0065000000 0.0065000000 0.0065000000 0.0065000000 0.0065000000 0.0065000000 0.0065000000 0.0065000000 0.0065000000 0.0065000000 0.0065000000 0.0065000000 0.0065000000 0.0065000000 0.0065000000 0.0065000000 0.0065000000 0.0065000000 0.0065000000 0.0065000000 0.0065000000 0.0065000000 0.0065000000 0.0065000000 0.0065000000 0.0065000000 0.0065000000 0.0065000000 0.0065000000 0.0065000000 0.0065000000 0.0065000000 0.0065000000 0.0065000000 0.0065000000 0.0065000000 0.0065000000 0.0065000000 0.0065000000 0.0065000000 0.0065000000 0.0065000000 0.0065000000 0.0065000000 0.0065000000 0.0065000000 0.0065000000 0.0065000000 0.0065000000 0.0065000000 0.0065000000 0.0065000000 0.0065000000 0.0065000000 0.0065000000 0.0065000000 0.0065000000 0.0065000000 0.0065000000 0.0065000000 0.0065000000 0.0065000000 0.0065000000 0.0065000000 0.0065000000 0.0065000000 0.0065000000 0.0065000000 0.0065000000 0.0065000000 0.0065000000 0.0065000000 0.0065000000 0.0065000000 0.0065000000 0.0065000000 0.0065000000 0.0065000000 0.0065000000 0.0065000000 0.0065000000 0.0065000000 0.0065000000 0.0065000000 0.0065000000 0.0065000000 0.0065000000 0.0065000000 0.0065000000 0.0065000000 0.0065000000 0.0065000000 0.0065000000 0.0065000000 0.0065000000 0.0065000000 0.0065000000 0.0065000000 0.0065000000 0.0065000000 0.0065000000 0.0065000000 0.0065000000 0.0065000000 0.0065000000 0.0065000000 0.0065000000 0.0065000000 0.0065000000 0.0065000000 0.0065000000 0.0065000000 0.0065000000 0.0065000000 0.0065000000 0.0065000000 0.0065000000 0.0065000000 0.0065000000 0.0065000000 0.0065000000 0.0065000000 0.0065000000 0.0065000000 0.0065000000 0.0065000000 0.0065000000 0.0065000000 0.0065000000 0.0065000000 0.0065000000 0.0065000000 0.0065000000 0.0065000000 0.0065000000 0.0065000000 0.0065000000 0.0065000000 0.0065000000 0.0065000000 0.0065000000 0.0065000000 0.0065000000 0.0065000000 0.0065000000 0.0065000000 0.0065000000 0.0065000000 0.0065000000 0.0065000000 0.0065000000 0.0065000000 0.0065000000 0.0065000000 0.0065000000 0.0065000000 0.0065000000 0.0065000000 0.0065000000 0.0065000000 0.0065000000 0.0065000000 0.0065000000 0.0065000000 0.0065000000 0.0065000000 0.0065000000 0.0065000000 0.0065000000 0.0065000000 0.0065000000 0.0065000000 0.0065000000 0.0065000000 0.0065000000 0.0065000000 0.0065000000 0.0065000000 0.0065000000 0.0065000000 0.0065000000 0.0065000000 0.0065000000 0.0065000000 0.0065000000 0.0065000000 0.0065000000 0.0065000000 0.0065000000 0.0065000000 0.0065000000 0.0065000000 0.0065000000 0.0065000000 0.0065000000 0.0065000000 0.0065000000 0.0065000000 0.0065000000 0.0065000000 0.0065000000 0.0065000000 0.0065000000 0.0065000000 0.0065000000 0.0065000000 0.0065000000 0.0065000000 0.0065000000 0.0065000000 0.0065000000 0.0065000000 0.0065000000 0.0065000000 0.0065000000 0.0065000000 0.0065000000 0.0065000000 0.0065000000 0.0065000000 0.0065000000 0.0065000000 0.0065000000 0.0065000000 0.0065000000 0.0065000000 0.0065000000 0.0065000000 0.0065000000 0.0065000000 0.0065000000 0.0065000000 0.0065000000 0.0065000000 0.0065000000 0.0065000000 0.0065000000 0.0065000000 0.0065000000 0.0065000000 0.0065000000 0.0065000000 0.0065000000 0.0065000000 0.0065000000 0.0065000000 0.0065000000 0.0065000000 0.0065000000 0.0065000000 0.0065000000 0.0065000000 0.0065000000 0.0065000000 0.0065000000 0.0065000000 0.0065000000 0.0065000000 0.0065000000 0.0065000000 0.0065000000 0.0065000000 0.0065000000 0.0065000000 0.0065000000 0.0065000000 0.0065000000 0.0065000000 0.0065000000 0.0065000000 0.0065000000 0.0065000000 0.0065000000 0.0065000000 0.0065000000 0.0065000000 0.0065000000 0.0065000000 0.0065000000 0.0065000000 0.0065000000 0.0065000000 0.0065000000 0.0065000000 0.0065000000 0.0065000000 0.0065000000 0.0065000000 0.0065000000 0.0065000000 0.0065000000 0.0065000000 0.0065000000 0.0065000000 0.0065000000 0.0065000000 0.0065000000 0.0065000000 0.0065000000 0.0065000000 0.0065000000 0.0065000000 0.0065000000 0.0065000000 0.0065000000 0.0065000000 0.0065000000 0.0065000000 0.0065000000 0.0065000000 0.0065000000 0.0065000000 0.0065000000 0.0065000000 0.0065000000 0.0065000000 0.0065000000 0.0065000000 0.0065000000 0.0065000000 0.0065000000 0.0065000000 0.0065000000 0.0065000000 0.0065000000 0.0065000000 0.0065000000 0.0065000000 0.0065000000 0.0065000000 0.0065000000 0.0065000000 0.0065000000 0.0065000000 0.0065000000 0.0065000000 0.0065000000 0.0065000000 0.0065000000 0.0065000000 0.0065000000 0.0065000000 0.0065000000 0.0065000000 0.0065000000 0.0065000000 0.0065000000 0.0065000000 0.0065000000 0.0065000000 0.0065000000 0.0065000000 0.0065000000 0.0065000000 0.0065000000 0.0065000000 0.0065000000 0.0065000000 0.0065000000 0.0065000000 0.0065000000 0.0065000000 0.0065000000 0.0065000000 0.0065000000 0.0065000000 0.0065000000 0.0065000000 0.0065000000 0.0065000000 0.0065000000 0.0065000000 0.0065000000 0.0065000000 0.0065000000 0.0065000000 0.0065000000 0.0065000000 0.0065000000 0.0065000000 0.0065000000 0.0065000000 0.0065000000 0.0065000000 0.0065000000 0.0065000000 0.0065000000 0.0065000000 0.0065000000 0.0065000000 0.0065000000 0.0065000000 0.0065000000 0.0065000000 0.0065000000 0.0065000000 0.0065000000 0.0065000000 0.0065000000 0.0065000000 0.0065000000 0.0065000000 0.0065000000 0.0065000000 0.0065000000 0.0065000000 0.0065000000 0.0065000000 0.0065000000 0.0065000000 0.0065000000 0.0065000000 0.0065000000 0.0065000000 0.0065000000 0.0065000000 0.0065000000 0.0065000000 0.0065000000 0.0065000000 0.0065000000 0.0065000000 0.0065000000 0.0065000000 0.0065000000 0.0065000000 0.0065000000 0.0065000000 0.0065000000 0.0065000000 0.0065000000 0.0065000000 0.0065000000 0.0065000000 0.0065000000 0.0065000000 0.0065000000 0.0065000000 0.0065000000 0.0065000000 0.0065000000 0.0065000000 0.0065000000 0.0065000000 0.0065000000 0.0065000000 0.0065000000 0.0065000000 0.0065000000 0.0065000000 0.0065000000 0.0065000000 0.0065000000 0.0065000000 0.0065000000 0.0065000000 0.0065000000 0.0065000000 0.0065000000 0.0065000000 0.0065000000 0.0065000000 0.0065000000 0.0065000000 0.0065000000 0.0065000000 0.0065000000 0.0065000000 0.0065000000 0.0065000000 0.0065000000 0.0065000000 0.0065000000 0.0065000000 0.0065000000 0.0065000000 0.0065000000 0.0065000000 0.0065000000 0.0065000000 0.0065000000 0.0065000000 0.0065000000 0.0065000000 0.0065000000 0.0065000000 0.0065000000 0.0065000000 0.0065000000 0.0065000000 0.0065000000 0.0065000000 0.0065000000 0.0065000000 0.0065000000 0.0065000000 0.0065000000 0.0065000000 0.0065000000 0.0065000000 0.0065000000 0.0065000000 0.0065000000 0.0065000000 0.0065000000 0.0065000000 0.0065000000 0.0065000000 0.0065000000 0.0065000000 0.0065000000 0.0065000000 0.0065000000 0.0065000000 0.0065000000 0.0065000000 0.0065000000 0.0065000000 0.0065000000 0.0065000000 0.0065000000 0.0065000000 0.0065000000 0.0065000000 0.0065000000 0.0065000000 0.0065000000 0.0065000000 0.0065000000 0.0065000000 0.0065000000 0.0065000000 0.0065000000 0.0065000000 0.0065000000 0.0065000000 0.0065000000 0.0065000000 0.0065000000 0.0065000000 0.0065000000 0.0065000000 0.0065000000 0.0065000000 0.0065000000 0.0065000000 0.0065000000 0.0065000000 0.0065000000 0.0065000000 0.0065000000 0.0065000000 0.0065000000 0.0065000000 0.0065000000 0.0065000000 0.0065000000 0.0065000000 0.0065000000 0.0065000000 0.0065000000 0.0065000000 0.0065000000 0.0065000000 0.0065000000 0.0065000000 0.0065000000 0.0065000000 0.0065000000 0.0065000000 0.0065000000 0.0065000000 0.0065000000 0.0065000000 0.0065000000 0.0065000000 0.0065000000 0.0065000000 0.0065000000 0.0065000000 0.0065000000 0.0065000000 0.0065000000 0.0065000000 0.0065000000 0.0065000000 0.0065000000 0.0065000000 0.0065000000 0.0065000000 0.0065000000 0.0065000000 0.0065000000 0.0065000000 0.0065000000 0.0065000000 0.0065000000 0.0065000000 0.0065000000 0.0065000000 0.0065000000 0.0065000000 0.0065000000 0.0065000000 0.0065000000 0.0065000000 0.0065000000 0.0065000000 0.0065000000 0.0065000000 0.0065000000 0.0065000000 0.0065000000 0.0065000000 0.0065000000 0.0065000000 0.0065000000 0.0065000000 0.0065000000 0.0065000000 0.0065000000 0.0065000000 0.0065000000 0.0065000000 0.0065000000 0.0065000000 0.0065000000 0.0065000000 0.0065000000 0.0065000000 0.0065000000 0.0065000000 0.0065000000 0.0065000000 0.0065000000 0.0065000000 0.0065000000 0.0065000000 0.0065000000 0.0065000000 0.0065000000 0.0065000000 0.0065000000 0.0065000000 0.0065000000 0.0065000000 0.0065000000 0.0065000000 0.0065000000 0.0065000000 0.0065000000 0.0065000000 0.0065000000 0.0065000000 0.0065000000 0.0065000000 0.0065000000 0.0065000000 0.0065000000 0.0065000000 0.0065000000 0.0065000000 0.0065000000 0.0065000000 0.0065000000 0.0065000000 0.0065000000 0.0065000000 0.0065000000 0.0065000000 0.0065000000 0.0065000000 0.0065000000 0.0065000000 0.0065000000 0.0065000000 0.0065000000 0.0065000000 0.0065000000 0.0065000000 0.0065000000 0.0065000000 0.0065000000 0.0065000000 0.0065000000 0.0065000000 0.0065000000 0.0065000000 0.0065000000 0.0065000000 0.0065000000 0.0065000000 0.0065000000 0.0065000000 0.0065000000 0.0065000000 0.0065000000 0.0065000000 0.0065000000 0.0065000000 0.0065000000 0.0065000000 0.0065000000 0.0065000000 0.0065000000 0.0065000000 0.0065000000 0.0065000000 0.0065000000 0.0065000000 0.0065000000 0.0065000000 0.0065000000 0.0065000000 0.0065000000 0.0065000000 0.0065000000 0.0065000000 0.0065000000 0.0065000000 0.0065000000 0.0065000000 0.0065000000 0.0065000000 0.0065000000 0.0065000000 0.0065000000 0.0065000000 0.0065000000 0.0065000000 0.0065000000 0.0065000000 0.0065000000 0.0065000000 0.0065000000 0.0065000000 0.0065000000 0.0065000000 0.0065000000 0.0065000000 0.0065000000 0.0065000000 0.0065000000 0.0065000000 0.0065000000 0.0065000000 0.0065000000 0.0065000000 0.0065000000 0.0065000000 0.0065000000 0.0065000000 0.0065000000 0.0065000000 0.0065000000 0.0065000000 0.0065000000 0.0065000000 0.0065000000 0.0065000000 0.0065000000 0.0065000000 0.0065000000 0.0065000000 0.0065000000 0.0065000000 0.0065000000 0.0065000000 0.0065000000 0.0065000000 0.0065000000 0.0065000000 0.0065000000 0.0065000000 0.0065000000 0.0065000000 0.0065000000 0.0065000000 0.0065000000 0.0065000000 0.0065000000 0.0065000000 0.0065000000 0.0065000000 0.0065000000 0.0065000000 0.0065000000 0.0065000000 0.0065000000 0.0065000000 0.0065000000 0.0065000000 0.0065000000 0.0065000000 0.0065000000 0.0065000000 0.0065000000 0.0065000000 0.0065000000 0.0065000000 0.0065000000 0.0065000000 0.0065000000 0.0065000000 0.0065000000 0.0065000000 0.0065000000 0.0065000000 0.0065000000 0.0065000000 0.0065000000 0.0065000000 0.0065000000 0.0065000000 0.0065000000 0.0065000000 0.0065000000 0.0065000000 0.0065000000 0.0065000000 0.0065000000 0.0065000000 0.0065000000 0.0065000000 0.0065000000 0.0065000000 0.0065000000 0.0065000000 0.0065000000 0.0065000000 0.0065000000 0.0065000000 0.0065000000 0.0065000000 0.0065000000 0.0065000000 0.0065000000 0.0065000000 0.0065000000 0.0065000000 0.0065000000 0.0065000000 0.0065000000 0.0065000000 0.0065000000 0.0065000000 0.0065000000 0.0065000000 0.0065000000 0.0065000000 0.0065000000 0.0065000000 0.0065000000 0.0065000000 0.0065000000 0.0065000000 0.0065000000 0.0065000000 0.0065000000 0.0065000000 0.0065000000 0.0065000000 0.0065000000 0.0065000000 0.0065000000 0.0065000000 0.0065000000 0.0065000000 0.0065000000 0.0065000000 0.0065000000 0.0065000000 0.0065000000 0.0065000000 0.0065000000 0.0065000000 0.0065000000 0.0065000000 0.0065000000 0.0065000000 0.0065000000 0.0065000000 0.0065000000 0.0065000000 0.0065000000 0.0065000000 0.0065000000 0.0065000000 0.0065000000 0.0065000000 0.0065000000 0.0065000000 0.0065000000 0.0065000000 0.0065000000 0.0065000000 0.0065000000 0.0065000000 0.0065000000 0.0065000000 0.0065000000 0.0065000000 0.0065000000 0.0065000000 0.0065000000 0.0065000000 0.0065000000 0.0065000000 0.0065000000 0.0065000000 0.0065000000 0.0065000000 0.0065000000 0.0065000000 0.0065000000 0.0065000000 0.0065000000 0.0065000000 0.0065000000 0.0065000000 0.0065000000 0.0065000000 0.0065000000 0.0065000000 0.0065000000 0.0065000000 0.0065000000 0.0065000000 0.0065000000 0.0065000000 0.0065000000 0.0065000000 0.0065000000 0.0065000000 0.0065000000 0.0065000000 0.0065000000 0.0065000000 0.0065000000 0.0065000000 0.0065000000 0.0065000000 0.0065000000 0.0065000000 0.0065000000 0.0065000000 0.0065000000 0.0065000000 0.0065000000 0.0065000000 0.0065000000 0.0065000000 0.0065000000 0.0065000000 0.0065000000 0.0065000000 0.0065000000 0.0065000000 0.0065000000 0.0065000000 0.0065000000 0.0065000000 0.0065000000 0.0065000000 0.0065000000 0.0065000000 0.0065000000 0.0065000000 0.0065000000 0.0065000000 0.0065000000 0.0065000000 0.0065000000 0.0065000000 0.0065000000 0.0065000000 0.0065000000 0.0065000000 0.0065000000 0.0065000000 0.0065000000 0.0065000000 0.0065000000 0.0065000000 0.0065000000 0.0065000000 0.0065000000 0.0065000000 0.0065000000 0.0065000000 0.0065000000 0.0065000000 0.0065000000 0.0065000000 0.0065000000 0.0065000000 0.0065000000 0.0065000000 0.0065000000 0.0065000000 0.0065000000 0.0065000000 0.0065000000 0.0065000000 0.0065000000 0.0065000000 0.0065000000 0.0065000000 0.0065000000 0.0065000000 0.0065000000 0.0065000000 0.0065000000 0.0065000000 0.0065000000 0.0065000000 0.0065000000 0.0065000000 0.0065000000 0.0065000000 0.0065000000 0.0065000000 0.0065000000 0.0065000000 0.0065000000 0.0065000000 0.0065000000 0.0065000000 0.0065000000 0.0065000000 0.0065000000 0.0065000000 0.0065000000 0.0065000000 0.0065000000 0.0065000000 0.0065000000 0.0065000000 0.0065000000 0.0065000000 0.0065000000 0.0065000000 0.0065000000 0.0065000000 0.0065000000 0.0065000000 0.0065000000 0.0065000000 0.0065000000 0.0065000000 0.0065000000 0.0065000000 0.0065000000 0.0065000000 0.0065000000 0.0065000000 0.0065000000 0.0065000000 0.0065000000 0.0065000000 0.0065000000 0.0065000000 0.0065000000 0.0065000000 0.0065000000 0.0065000000 0.0065000000 0.0065000000 0.0065000000 0.0065000000 0.0065000000 0.0065000000 0.0065000000 0.0065000000 0.0065000000 0.0065000000 0.0065000000 0.0065000000 0.0065000000 0.0065000000 0.0065000000 0.0065000000 0.0065000000 0.0065000000 0.0065000000 0.0065000000 0.0065000000 0.0065000000 0.0065000000 0.0065000000 0.0065000000 0.0065000000 0.0065000000 0.0065000000 0.0065000000 0.0065000000 0.0065000000 0.0065000000 0.0065000000 0.0065000000 0.0065000000 0.0065000000 0.0065000000 0.0065000000 0.0065000000 0.0065000000 0.0065000000 0.0065000000 0.0065000000 0.0065000000 0.0065000000 0.0065000000 0.0065000000 0.0065000000 0.0065000000 0.0065000000 0.0065000000 0.0065000000 0.006500000