<?xml version="1.0"?>
<VTKFile type="UnstructuredGrid" version="0.1" byte_order="LittleEndian">
  <UnstructuredGrid>
    <FieldData>
      <DataArray type="Float32" Name="TIME"  NumberOfTuples="1" format="ascii"> 1.1991740593 </DataArray>
      <DataArray type="Int32"   Name="STEP"  NumberOfTuples="1" format="ascii"> 16080 </DataArray>
    </FieldData>
    <Piece NumberOfPoints="18081" NumberOfCells="18081">
      <Points>
        <DataArray type="Float32" NumberOfComponents="3" format="ascii">
 0.0056454011 -0.0004016760 0.0010523061 0.0162706607 -0.0002184641 0.0082308642 0.0315386333 0.0068708778 -0.0004094970 0.0484115163 0.0449812543 0.0169566465 0.0305342207 0.0124986013 0.0018952319 0.1347099885 0.0006837839 0.0102588973 0.3419859870 -0.0008091509 0.0002436051 0.3765551240 0.0048021779 0.0172778974 0.4068985864 0.0030001872 0.0117573700 0.3543264136 0.0097717166 0.0180821195 0.4474248550 0.0105368399 0.0173590288 0.4511052468 0.0018719146 0.0057666821 0.4436767455 0.0147628743 0.0237454803 0.4267131162 0.0434691905 0.0215512543 0.3879334856 0.0259119899 0.0184259138 0.3545102531 0.0199728653 0.0181889158 0.4199220003 0.0021976946 0.0069754648 0.2790370007 0.0308769687 0.0138790197 0.1716120058 0.0393515812 0.0218428294 0.1773868677 0.0524018902 0.0182638449 0.4540799869 0.0048107738 0.0205325668 0.0190777814 0.0063920129 0.0097202060 0.0270211742 -0.0003958705 0.0088680903 0.0466744322 0.0355595312 0.0031789824 0.0577657523 0.0357494825 0.0054100686 0.1464991800 0.0065983363 0.0115502577 0.3623972642 -0.0012774567 0.0120153509 0.3909553395 0.0027724192 0.0121151997 0.3778767964 0.0072534561 0.0093421899 0.3073846457 0.0032638491 0.0174889612 0.4286814369 -0.0002040930 0.0153923884 0.4226789902 0.0377318471 0.0201710131 0.4855861538 0.0163333305 0.0027894321 0.4264265793 0.0339937077 0.0198802652 0.4137940616 -0.0003409923 0.0170437840 0.3928742956 0.0190822506 0.0189101983 0.3892459949 0.0086851367 0.0208334200 0.3899760335 0.0175689465 0.0194837280 0.1200201045 0.0335188059 0.0207367744 0.1125136164 0.0201186339 0.0204040059 0.1232471587 0.0403075539 0.0222651126 0.2451116959 0.0411924330 0.0110878991 0.0194796984 0.0146243545 0.0011667396 0.0262443704 0.0016837456 -0.0002093415 0.0441320628 0.0340897878 -0.0004226778 0.0371390578 0.0519315499 0.0211578947 0.1817710601 0.0117991035 0.0044177171 0.2763965707 0.0075271851 0.0007216101 0.3894518539 0.0003480774 -0.0003099473 0.4263667381 0.0120504570 -0.0006052179 0.4405057163 0.0109027364 0.0017756458 0.3937543769 0.0117356118 0.0052532942 0.4197742798 0.0438976336 0.0217195393 0.4151322908 0.0390988242 0.0108059903 0.4432535808 0.0538981849 0.0204487562 0.4296216133 0.0235568847 0.0084091480 0.3644265487 0.0230643753 0.0131118043 0.3958553071 0.0131728496 0.0161163256 0.4276678184 0.0151965980 0.0194845373 0.0657935974 0.0160879997 0.0181802659 0.4316144356 0.0488401158 0.0260279122 0.5008109241 0.0154438681 0.0009111541 0.4404873443 0.0434056581 0.0144972315 0.0354347607 0.0289934136 0.0003149358 0.0258460248 0.0182496951 0.0050763965 0.0911918356 0.0450748215 -0.0009873476 0.0459151239 0.0309808320 0.0035848463 0.2004256350 0.0002557899 -0.0000247079 0.3465406435 0.0050394105 0.0064686980 0.3716707804 0.0088209504 0.0052330587 0.2488518115 0.0032703964 0.0120732640 0.1695264253 0.0084229742 0.0183936739 0.4319725394 0.0072664535 0.0108066453 0.4287116316 0.0503420277 0.0140184671 0.4258871544 0.0525620695 0.0190329753 0.4387374734 0.0194494822 0.0163167581 0.3357370563 0.0100014167 0.0126092012 0.2833223853 0.0157665060 0.0147172368 0.4087373779 0.0432597255 0.0196859798 0.1999844851 0.0311083796 0.0183216889 0.0810232173 0.0218966725 0.0136743716 0.0369391697 0.0032032466 0.0021970555 0.0705801422 0.0112987712 0.0191556346 0.4560623346 0.0663238114 0.0271874784 0.0231917570 0.0267168216 0.0065885130 0.0480930747 0.0394852609 0.0049586859 0.1110251125 0.0445682428 -0.0009317637 0.1629262341 0.0052776846 -0.0003132040 0.1742068332 0.0099322429 0.0022717523 0.3488193516 0.0010551401 0.0104909531 0.4096349614 0.0107134161 -0.0003483164 0.3474223835 0.0097396875 0.0121094988 0.2309218075 -0.0015528050 0.0103635429 0.3476803081 0.0155464424 0.0135273555 0.4283438474 0.0349438214 0.0028526097 0.4323437599 0.0464897193 0.0159508379 0.4221650369 0.0558047020 0.0237270967 0.3977321050 0.0471902840 0.0181456409 0.3016115274 0.0330232143 0.0139573878 0.3291822356 0.0468450194 0.0140702790 0.1579480457 0.0374619599 0.0210147169 0.1581937215 0.0252977128 0.0203553569 0.3024148549 0.0487709649 0.0131993581 0.1604492554 0.0557187005 0.0247282431 0.4253788546 0.0557659377 0.0260622756 0.0383232669 0.0377699910 -0.0006557247 0.0422645894 0.0378870227 0.0008650407 0.1045629778 0.0421939985 -0.0003264800 0.0998731827 0.0000413091 -0.0003093980 0.2150168973 0.0053587483 -0.0007196064 0.3972204277 0.0076010430 -0.0008938717 0.3149979619 0.0170819755 0.0105669367 0.2744422756 0.0137162638 0.0138938900 0.2507681414 0.0164305447 0.0116539346 0.3568074751 0.0151323499 0.0090739122 0.4255489545 0.0373337661 0.0077492820 0.4050359559 0.0488940886 0.0062361107 0.4248802778 0.0565708224 0.0138782395 0.4449660845 0.0717037528 0.0292432258 0.3561385702 0.0484428778 0.0141922042 0.4191846213 0.0448244096 0.0135326101 0.2145305606 0.0294261021 0.0123348224 0.0106966371 0.0083150299 0.0252756977 0.2124195660 0.0397705398 0.0103840986 0.1556511179 0.0520553021 0.0233735291 0.4455884421 0.0406659575 0.0201803379 0.0391157775 0.0419471495 0.0031491982 0.0624779143 0.0455879369 0.0044223386 0.1030063635 0.0507129678 0.0016429767 0.1778146626 0.0133123823 -0.0003326339 0.3122519823 0.0026592976 0.0044795518 0.3631819900 0.0119985900 -0.0009956746 0.3339960347 0.0233778299 0.0055306611 0.3828528221 0.0111800019 0.0047427947 0.1889779639 0.0139145867 0.0133022597 0.3460859671 0.0234589223 0.0085014006 0.4029453845 0.0476573225 0.0110958145 0.4176365705 0.0311795421 0.0109289071 0.3736499753 0.0602440156 0.0115455305 0.4347375803 0.0685019880 0.0013127338 0.3398715874 0.0266413409 0.0113882456 0.3380872758 0.0592381885 0.0127121867 0.0892944321 0.0147919309 0.0065250507 0.0249556371 0.0059933980 0.0219191304 0.0576293505 0.0186396394 0.0026335544 0.0291365065 0.0108150404 0.0128932674 0.2696988630 0.0427187915 0.0119418614 0.0219933199 0.0343654386 0.0017118153 0.0660046793 0.0485464754 0.0029536173 0.1135071267 0.0568227626 -0.0004046601 0.1645142111 0.0155120358 -0.0006229472 0.1982096979 0.0048134158 0.0000728426 0.3414866632 0.0038740060 -0.0003064572 0.3662153488 0.0283604113 -0.0003118357 0.2411293768 0.0319382784 0.0108509134 0.3713999651 0.0235128440 0.0060319240 0.2001630466 0.0132692508 0.0043854366 0.4081414874 0.0475727402 0.0104242886 0.4668063841 0.0720097357 0.0003081571 0.3492639130 0.0475657318 0.0106139107 0.4188219583 0.0567160230 0.0058211978 0.3483928706 0.0316946865 0.0121625051 0.2616747211 0.0287860470 0.0122061988 0.2601439041 0.0496153312 0.0094503332 0.0982729300 0.0185988276 0.0138132309 0.2624194898 0.0408612163 0.0097521832 0.2063307353 0.0465580739 0.0147597166 0.0409601167 0.0071122278 0.0232080990 0.0314226272 0.0372632773 -0.0004226742 0.0499137287 0.0503594275 0.0078469311 0.1236528686 0.0548245251 -0.0006839390 0.1586682053 0.0145453604 0.0027072343 0.3151619144 0.0100721511 -0.0001028759 0.3538642016 0.0129663649 -0.0007667965 0.3473071144 0.0248133169 -0.0005857353 0.3129338474 0.0272599015 0.0076728275 0.1529193523 0.0429108566 0.0223832334 0.1141662358 0.0171876156 0.0068014005 0.4029902005 0.0513851951 -0.0005442125 0.4139412156 0.0520986666 0.0083392619 0.4048572228 0.0549867922 0.0134127309 0.4398609239 0.0465071842 0.0234097024 0.3690211837 0.0636433099 0.0164432216 0.4345608955 0.0590692448 0.0280785736 0.2084519726 0.0574566577 0.0119743066 0.1201366032 0.0154370494 0.0077223909 0.0847779558 0.0379993121 0.0140507695 0.1247273056 0.0487556786 0.0231570407 0.0557698322 0.0212300977 0.0193130847 0.0239072283 0.0379978183 0.0032142131 0.0446105955 0.0502743925 -0.0001555858 0.0770794905 0.0599812467 -0.0001104581 0.1616981897 0.0208130233 0.0002679774 0.2978490235 0.0147313669 0.0059792123 0.3309049840 0.0127985868 0.0063857006 0.3390625527 0.0223879331 0.0028154049 0.3625674599 0.0262340541 0.0035905382 0.3482603751 0.0280406403 0.0056054474 0.2841921421 0.0406589773 0.0094291257 0.3941834356 0.0348007975 0.0099849171 0.4902920705 0.0657521880 0.0040688808 0.3899590012 0.0608528874 0.0191473463 0.3690037174 0.0217418029 0.0098858064 0.2839826744 0.0515808001 0.0117766211 0.2813760283 0.0422576448 0.0059223294 0.2426115240 0.0605316227 0.0095563900 0.1526657645 0.0654976653 0.0231072955 0.3790062397 0.0698527641 0.0186586124 0.1036240376 0.0515909469 0.0207085080 0.4879032323 0.0625406524 0.0000716194 0.0239003299 0.0431598699 0.0047109036 0.0431685867 0.0562430359 -0.0002416667 0.0990908051 0.0558464818 0.0039500852 0.1726999119 0.0251308769 0.0026557702 0.1977562299 0.0253833985 0.0055169405 0.3395340883 0.0149959901 0.0023990048 0.3461229449 0.0296474324 0.0025920638 0.3822326769 0.0329014104 -0.0003100137 0.1152426216 0.0414917182 0.0200194018 0.1889093220 0.0414944976 -0.0001029805 0.4863375367 0.0471426689 0.0001473675 0.5002605450 0.0702077684 -0.0003269475 0.3675311401 0.0661305838 0.0107634779 0.4714281172 0.0615079731 0.0055556717 0.4065199454 0.0722123647 0.0225874942 0.2067753103 0.0601533753 0.0066608191 0.2022668088 0.0479449694 0.0128894526 0.1277207746 0.0586216338 0.0094529938 0.2390710388 0.0630290706 0.0075902646 0.1360902003 0.0660611698 0.0237301206 0.4552798872 0.0708202979 0.2032644901 0.0366662265 0.0434584869 -0.0001798722 0.0388906301 0.0591897417 0.0091146489 0.0995597345 0.0640431752 0.0016593514 0.1579977079 0.0245751339 -0.0007948902 0.1476597420 0.0355325886 0.0138568396 0.3222112531 0.0308614209 -0.0009455490 0.3513384899 0.0284173318 -0.0004033955 0.2187266275 0.0314400356 -0.0009302897 0.3911140553 0.0351433885 0.0000506122 0.3379479224 0.0406388714 0.0069372837 0.4584630341 0.0407683674 0.0041372225 0.4305444395 0.
[...]
      <PointData Scalars="smoothLength">
        <DataArray type="Float32" Name="smoothLength" format="ascii">
 0.0065000000 0.0065000000 0.0065000000 0.0065000000 0.0065000000 0.0065000000 0.0065000000 0.0065000000 0.0065000000 0.0065000000 0.0065000000 0.0065000000 0.0065000000 0.0065000000 0.0065000000 0.0065000000 0.0065000000 0.0065000000 0.0065000000 0.0065000000 0.0065000000 0.0065000000 0.0065000000 0.0065000000 0.0065000000 0.0065000000 0.0065000000 0.0065000000 0.0065000000 0.0065000000 0.0065000000 0.0065000000 0.0065000000 0.0065000000 0.0065000000 0.0065000000 0.0065000000 0.0065000000 0.0065000000 0.0065000000 0.0065000000 0.0065000000 0.0065000000 0.0065000000 0.0065000000 0.0065000000 0.0065000000 0.0065000000 0.0065000000 0.0065000000 0.0065000000 0.0065000000 0.0065000000 0.0065000000 0.0065000000 0.0065000000 0.0065000000 0.0065000000 0.0065000000 0.0065000000 0.0065000000 0.0065000000 0.0065000000 0.0065000000 0.0065000000 0.0065000000 0.0065000000 0.0065000000 0.0065000000 0.0065000000 0.0065000000 0.0065000000 0.0065000000 0.0065000000 0.0065000000 0.0065000000 0.0065000000 0.0065000000 0.0065000000 0.0065000000 0.0065000000 0.0065000000 0.0065000000 0.0065000000 0.0065000000 0.0065000000 0.0065000000 0.0065000000 0.0065000000 0.0065000000 0.0065000000 0.0065000000 0.0065000000 0.0065000000 0.0065000000 0.0065000000 0.0065000000 0.0065000000 0.0065000000 0.0065000000 0.0065000000 0.0065000000 0.0065000000 0.0065000000 0.0065000000 0.0065000000 0.0065000000 0.0065000000 0.0065000000 0.0065000000 0.0065000000 0.0065000000 0.0065000000 0.0065000000 0.0065000000 0.0065000000 0.0065000000 0.0065000000 0.0065000000 0.0065000000 0.0065000000 0.0065000000 0.0065000000 0.0065000000 0.0065000000 0.0065000000 0.0065000000 0.0065000000 0.0065000000 0.0065000000 0.0065000000 0.0065000000 0.0065000000 0.0065000000 0.0065000000 0.0065000000 0.0065000000 0.0065000000 0.0065000000 0.0065000000 0.0065000000 0.0065000000 0.0065000000 0.0065000000 0.0065000000 0.0065000000 0.0065000000 0.0065000000 0.0065000000 0.0065000000 0.0065000000 0.0065000000 0.0065000000 0.0065000000 0.0065000000 0.0065000000 0.0065000000 0.0065000000 0.0065000000 0.0065000000 0.0065000000 0.0065000000 0.0065000000 0.0065000000 0.0065000000 0.0065000000 0.0065000000 0.0065000000 0.0065000000 0.0065000000 0.0065000000 0.0065000000 0.0065000000 0.0065000000 0.0065000000 0.0065000000 0.0065000000 0.0065000000 0.0065000000 0.0065000000 0.0065000000 0.0065000000 0.0065000000 0.0065000000 0.0065000000 0.0065000000 0.0065000000 0.0065000000 0.0065000000 0.0065000000 0.0065000000 0.0065000000 0.0065000000 0.0065000000 0.0065000000 0.0065000000 0.0065000000 0.0065000000 0.0065000000 0.0065000000 0.0065000000 0.0065000000 0.0065000000 0.0065000000 0.0065000000 0.0065000000 0.0065000000 0.0065000000 0.0065000000 0.0065000000 0.0065000000 0.0065000000 0.0065000000 0.0065000000 0.0065000000 0.0065000000 0.0065000000 0.0065000000 0.0065000000 0.0065000000 0.0065000000 0.0065000000 0.0065000000 0.0065000000 0.0065000000 0.0065000000 0.0065000000 0.0065000000 0.0065000000 0.0065000000 0.0065000000 0.0065000000 0.0065000000 0.0065000000 0.0065000000 0.0065000000 0.0065000000 0.0065000000 0.0065000000 0.0065000000 0.0065000000 0.0065000000 0.0065000000 0.0065000000 0.0065000000 0.0065000000 0.0065000000 0.0065000000 0.0065000000 0.0065000000 0.0065000000 0.0065000000 0.0065000000 0.0065000000 0.0065000000 0.0065000000 0.0065000000 0.0065000000 0.0065000000 0.0065000000 0.0065000000 0.0065000000 0.0065000000 0.0065000000 0.0065000000 0.0065000000 0.0065000000 0.0065000000 0.0065000000 0.0065000000 0.0065000000 0.0065000000 0.0065000000 0.0065000000 0.0065000000 0.0065000000 0.0065000000 0.0065000000 0.0065000000 0.0065000000 0.0065000000 0.0065000000 0.0065000000 0.0065000000 0.0065000000 0.0065000000 0.0065000000 0.0065000000 0.0065000000 0.0065000000 0.0065000000 0.0065000000 0.0065000000 0.0065000000 0.0065000000 0.0065000000 0.0065000000 0.0065000000 0.0065000000 0.0065000000 0.0065000000 0.0065000000 0.0065000000 0.0065000000 0.0065000000 0.0065000000 0.0065000000 0.0065000000 0.0065000000 0.0065000000 0.0065000000 0.0065000000 0.0065000000 0.0065000000 0.0065000000 0.0065000000 0.0065000000 0.0065000000 0.0065000000 0.0065000000 0.0065000000 0.0065000000 0.0065000000 0.0065000000 0.0065000000 0.0065000000 0.0065000000 0.0065000000 0.0065000000 0.0065000000 0.0065000000 0.0065000000 0.0065000000 0.0065000000 0.0065000000 0.0065000000 0.0065000000 0.0065000000 0.0065000000 0.0065000000 0.0065000000 0.0065000000 0.0065000000 0.0065000000 0.0065000000 0.0065000000 0.0065000000 0.0065000000 0.0065000000 0.0065000000 0.0065000000 0.0065000000 0.0065000000 0.0065000000 0.0065000000 0.0065000000 0.0065000000 0.0065000000 0.0065000000 0.0065000000 0.0065000000 0.0065000000 0.0065000000 0.0065000000 0.0065000000 0.0065000000 0.0065000000 0.0065000000 0.0065000000 0.0065000000 0.0065000000 0.0065000000 0.0065000000 0.0065000000 0.0065000000 0.0065000000 0.0065000000 0.0065000000 0.0065000000 0.0065000000 0.0065000000 0.0065000000 0.0065000000 0.0065000000 0.0065000000 0.0065000000 0.0065000000 0.0065000000 0.0065000000 0.0065000000 0.0065000000 0.0065000000 0.0065000000 0.0065000000 0.0065000000 0.0065000000 0.0065000000 0.0065000000 0.0065000000 0.0065000000 0.0065000000 0.0065000000 0.0065000000 0.0065000000 0.0065000000 0.0065000000 0.0065000000 0.0065000000 0.0065000000 0.0065000000 0.0065000000 0.0065000000 0.0065000000 0.0065000000 0.0065000000 0.0065000000 0.0065000000 0.0065000000 0.0065000000 0.0065000000 0.0065000000 0.0065000000 0.0065000000 0.0065000000 0.0065000000 0.0065000000 0.0065000000 0.0065000000 0.0065000000 0.0065000000 0.0065000000 0.0065000000 0.0065000000 0.0065000000 0.0065000000 0.0065000000 0.0065000000 0.0065000000 0.0065000000 0.0065000000 0.0065000000 0.0065000000 0.0065000000 0.0065000000 0.0065000000 0.0065000000 0.0065000000 0.0065000000 0.0065000000 0.0065000000 0.0065000000 0.0065000000 0.0065000000 0.0065000000 0.0065000000 0.0065000000 0.0065000000 0.0065000000 0.0065000000 0.0065000000 0.0065000000 0.0065000000 0.0065000000 0.0065000000 0.0065000000 0.0065000000 0.0065000000 0.0065000000 0.0065000000 0.0065000000 0.0065000000 0.0065000000 0.0065000000 0.0065000000 0.0065000000 0.0065000000 0.0065000000 0.0065000000 0.0065000000 0.0065000000 0.0065000000 0.0065000000 0.0065000000 0.0065000000 0.0065000000 0.0065000000 0.0065000000 0.0065000000 0.0065000000 0.0065000000 0.0065000000 0.0065000000 0.0065000000 0.0065000000 0.0065000000 0.0065000000 0.0065000000 0.0065000000 0.0065000000 0.0065000000 0.0065000000 0.0065000000 0.0065000000 0.0065000000 0.0065000000 0.0065000000 0.0065000000 0.0065000000 0.0065000000 0.0065000000 0.0065000000 0.0065000000 0.0065000000 0.0065000000 0.0065000000 0.0065000000 0.0065000000 0.0065000000 0.0065000000 0.0065000000 0.0065000000 0.0065000000 0.0065000000 0.0065000000 0.0065000000 0.0065000000 0.0065000000 0.0065000000 0.0065000000 0.0065000000 0.0065000000 0.0065000000 0.0065000000 0.0065000000 0.0065000000 0.0065000000 0.0065000000 0.0065000000 0.0065000000 0.0065000000 0.0065000000 0.0065000000 0.0065000000 0.0065000000 0.0065000000 0.0065000000 0.0065000000 0.0065000000 0.0065000000 0.0065000000 0.0065000000 0.0065000000 0.0065000000 0.0065000000 0.0065000000 0.0065000000 0.0065000000 0.0065000000 0.0065000000 0.0065000000 0.0065000000 0.0065000000 0.0065000000 0.0065000000 0.0065000000 0.0065000000 0.0065000000 0.0065000000 0.0065000000 0.0065000000 0.0065000000 0.0065000000 0.0065000000 0.0065000000 0.0065000000 0.0065000000 0.0065000000 0.0065000000 0.0065000000 0.0065000000 0.0065000000 0.0065000000 0.0065000000 0.0065000000 0.0065000000 0.0065000000 0.0065000000 0.0065000000 0.0065000000 0.0065000000 0.0065000000 0.0065000000 0.0065000000 0.0065000000 0.0065000000 0.0065000000 0.0065000000 0.0065000000 0.0065000000 0.0065000000 0.0065000000 0.0065000000 0.0065000000 0.0065000000 0.0065000000 0.0065000000 0.0065000000 0.0065000000 0.0065000000 0.0065000000 0.0065000000 0.0065000000 0.0065000000 0.0065000000 0.0065000000 0.0065000000 0.0065000000 0.0065000000 0.0065000000 0.0065000000 0.0065000000 0.0065000000 0.0065000000 0.0065000000 0.0065000000 0.0065000000 0.0065000000 0.0065000000 0.0065000000 0.0065000000 0.0065000000 0.0065000000 0.0065000000 0.0065000000 0.0065000000 0.0065000000 0.0065000000 0.0065000000 0.0065000000 0.0065000000 0.0065000000 0.0065000000 0.0065000000 0.0065000000 0.0065000000 0.0065000000 0.0065000000 0.0065000000 0.0065000000 0.0065000000 0.0065000000 0.0065000000 0.0065000000 0.0065000000 0.0065000000 0.0065000000 0.0065000000 0.0065000000 0.0065000000 0.0065000000 0.0065000000 0.0065000000 0.0065000000 0.0065000000 0.0065000000 0.0065000000 0.0065000000 0.0065000000 0.0065000000 0.0065000000 0.0065000000 0.0065000000 0.0065000000 0.0065000000 0.0065000000 0.0065000000 0.0065000000 0.0065000000 0.0065000000 0.0065000000 0.0065000000 0.0065000000 0.0065000000 0.0065000000 0.0065000000 0.0065000000 0.0065000000 0.0065000000 0.0065000000 0.0065000000 0.0065000000 0.0065000000 0.0065000000 0.0065000000 0.0065000000 0.0065000000 0.0065000000 0.0065000000 0.0065000000 0.0065000000 0.0065000000 0.0065000000 0.0065000000 0.0065000000 0.0065000000 0.0065000000 0.0065000000 0.0065000000 0.0065000000 0.0065000000 0.0065000000 0.0065000000 0.0065000000 0.0065000000 0.0065000000 0.0065000000 0.0065000000 0.0065000000 0.0065000000 0.0065000000 0.0065000000 0.0065000000 0.0065000000 0.0065000000 0.0065000000 0.0065000000 0.0065000000 0.0065000000 0.0065000000 0.0065000000 0.0065000000 0.0065000000 0.0065000000 0.0065000000 0.0065000000 0.0065000000 0.0065000000 0.0065000000 0.0065000000 0.0065000000 0.0065000000 0.0065000000 0.0065000000 0.0065000000 0.0065000000 0.0065000000 0.0065000000 0.0065000000 0.0065000000 0.0065000000 0.0065000000 0.0065000000 0.0065000000 0.0065000000 0.0065000000 0.0065000000 0.0065000000 0.0065000000 0.0065000000 0.0065000000 0.0065000000 0.0065000000 0.0065000000 0.0065000000 0.0065000000 0.0065000000 0.0065000000 0.0065000000 0.0065000000 0.0065000000 0.0065000000 0.0065000000 0.0065000000 0.0065000000 0.0065000000 0.0065000000 0.0065000000 0.0065000000 0.0065000000 0.0065000000 0.0065000000 0.0065000000 0.0065000000 0.0065000000 0.0065000000 0.0065000000 0.0065000000 0.0065000000 0.0065000000 0.0065000000 0.0065000000 0.0065000000 0.0065000000 0.0065000000 0.0065000000 0.0065000000 0.0065000000 0.0065000000 0.0065000000 0.0065000000 0.0065000000 0.0065000000 0.0065000000 0.0065000000 0.0065000000 0.0065000000 0.0065000000 0.0065000000 0.0065000000 0.0065000000 0.0065000000 0.0065000000 0.0065000000 0.0065000000 0.0065000000 0.0065000000 0.0065000000 0.0065000000 0.0065000000 0.0065000000 0.0065000000 0.0065000000 0.0065000000 0.0065000000 0.0065000000 0.0065000000 0.0065000000 0.0065000000 0.0065000000 0.0065000000 0.0065000000 0.0065000000 0.0065000000 0.0065000000 0.0065000000 0.0065000000 0.0065000000 0.0065000000 0.0065000000 0.0065000000 0.0065000000 0.0065000000 0.0065000000 0.0065000000 0.0065000000 0.0065000000 0.0065000000 0.0065000000 0.0065000000 0.0065000000 0.0065000000 0.0065000000 0.0065000000 0.0065000000 0.0065000000 0.0065000000 0.0065000000 0.0065000000 0.0065000000 0.0065000000 0.0065000000 0.0065000000 0.0065000000 0.0065000000 0.0065000000 0.0065000000 0.0065000000 0.0065000000 0.0065000000 0.0065000000 0.0065000000 0.0065000000 0.0065000000 0.0065000000 0.0065000000 0.0065000000 0.0065000000 0.0065000000 0.0065000000 0.0065000000 0.0065000000 0.0065000000 0.0065000000 0.0065000000 0.0065000000 0.0065000000 0.0065000000 0.0065000000 0.0065000000 0.0065000000 0.0065000000 0.0065000000 0.0065000000 0.0065000000 0.0065000000 0.0065000000 0.0065000000 0.0065000000 0.0065000000 0.0065000000 0.0065000000 0.0065000000 0.0065000000 0.0065000000 0.0065000000 0.0065000000 0.0065000000 0.0065000000 0.0065000000 0.0065000000 0.0065000000 0.0065000000 0.0065000000 0.0065000000 0.0065000000 0.0065000000 0.0065000000 0.0065000000 0.0065000000 0.0065000000 0.0065000000 0.0065000000 0.0065000000 0.0065000000 0.0065000000 0.0065000000 0.0065000000 0.0065000000 0.0065000000 0.0065000000 0.0065000000 0.0065000000 0.0065000000 0.0065000000 0.0065000000 0.0065000000 0.0065000000 0.0065000000 0.0065000000 0.0065000000 0.0065000000 0.0065000000 0.0065000000 0.0065000000 0.0065000000 0.0065000000 0.0065000000 0.0065000000 0.0065000000 0.0065000000 0.0065000000 0.0065000000 0.0065000000 0.0065000000 0.0065000000 0.0065000000 0.0065000000 0.0065000000 0.0065000000 0.0065000000 0.0065000000 0.0065000000 0.0065000000 0.0065000000 0.0065000000 0.0065000000 0.0065000000 0.0065000000 0.0065000000 0.0065000000 0.0065000000 0.0065000000 0.0065000000 0.0065000000 0.0065000000 0.0065000000 0.0065000000 0.0065000000 0.0065000000 0.0065000000 0.0065000000 0.0065000000 0.0065000000 0.0065000000 0.0065000000 0.0065000000 0.0065000000 0.0065000000 0.0065000000 0.0065000000 0.0065000000 0.0065000000 0.0065000000 0.0065000000 0.0065000000 0.0065000000 0.0065000000 0.0065000000 0.0065000000 0.0065000000 0.0065000000 0.0065000000 0.0065000000 0.0065000000 0.0065000000 0.0065000000 0.0065000000 0.0065000000 0.0065000000 0.0065000000 0.0065000000 0.0065000000 0.0065000000 0.0065000000 0.0065000000 0.0065000000 0.0065000000 0.0065000000 0.0065000000 0.0065000000 0.0065000000 0.0065000000 0.0065000000 0.0065000000 0.0065000000 0.0065000000 0.0065000000 0.0065000000 0.0065000000 0.0065000000 0.0065000000 0.0065000000 0.0065000000 0.0065000000 0.0065000000 0.0065000000 0.0065000000 0.0065000000 0.0065000000 0.0065000000 0.0065000000 0.0065000000 0.0065000000 0.0065000000 0.0065000000 0.0065000000 0.0065000000 0.0065000000 0.0065000000 0.0065000000 0.0065000000 0.0065000000 0.0065000000 0.0065000000 0.0065000000 0.0065000000 0.0065000000 0.0065000000 0.0065000000 0.0065000000 0.0065000000 0.0065000000 0.0065000000 0.0065000000 0.0065000000 0.0065000000 0.0065000000 0.0065000000 0.0065000000 0.0065000000 0.0065000000 0.0065000000 0.0065000000 0.0065000000 0.0065000000 0.0065000000 0.0065000000 0.0065000000 0.0065000000 0.0065000000 0.0065000000 0.0065000000 0.0065000000 0.0065000000 0.0065000000 0.0065000000 0.0065000000 0.0065000000 0.0065000000 0.0065000000 0.0065000000 0.0065000000 0.0065000000 0.0065000000 0.0065000000 0.0065000000 0.0065000000 0.0065000000 0.0065000000 0.0065000000 0.0065000000 0.0065000000 0.0065000000 0.0065000000 0.0065000000 0.0065000000 0.0065000000 0.0065000000 0.0065000000 0.0065000000 0.0065000000 0.0065000000 0.0065000000 0.0065000000 0.0065000000 0.0065000000 0.0065000000 0.0065000000 0.0065000000 0.0065000000 0.0065000000 0.0065000000 0.0065000000 0.0065000000 0.0065000000 0.0065000000 0.0065000000 0.0065000000 0.0065000000 0.0065000000 0.0065000000 0.0065000000 0.0065000000 0.0065000000 0.0065000000 0.0065000000 0.0065000000 0.0065000000 0.0065000000 0.0065000000 0.0065000000 0.0065000000 0.0065000000 0.0065000000 0.0065000000 0.0065000000 0.0065000000 0.0065000000 0.0065000000 0.0065000000 0.0065000000 0.0065000000 0.0065000000 0.0065000000 0.0065000000 0.0065000000 0.0065000000 0.0065000000 0.0065000000 0.0065000000 0.0065000000 0.0065000000 0.0065000000 0.0065000000 0.0065000000 0.0065000000 0.0065000000 0.0065000000 0.0065000000 0.0065000000 0.0065000000 0.0065000000 0.0065000000 0.0065000000 0.0065000000 0.0065000000 0.0065000000 0.0065000000 0.0065000000 0.0065000000 0.0065000000 0.0065000000 0.0065000000 0.0065000000 0.0065000000 0.0065000000 0.0065000000 0.0065000000 0.0065000000 0.0065000000 0.0065000000 0.0065000000 0.0065000000 0.0065000000 0.0065000000 0.0065000000 0.0065000000 0.0065000000 0.0065000000 0.0065000000 0.0065000000 0.0065000000 0.0065000000 0.0065000000 0.0065000000 0.0065000000 0.0065000000 0.0065000000 0.0065000000 0.0065000000 0.0065000000 0.0065000000 0.0065000000 0.0065000000 0.0065000000 0.0065000000 0.0065000000 0.0065000000 0.0065000000 0.0065000000 0.0065000000 0.0065000000 0.0065000000 0.0065000000 0.0065000000 0.0065000000 0.0065000000 0.0065000000 0.0065000000 0.0065000000 0.0065000000 0.0065000000 0.0065000000 0.0065000000 0.0065000000 0.0065000000 0.0065000000 0.0065000000 0.0065000000 0.0065000000 0.0065000000 0.0065000000 0.0065000000 0.0065000000 0.0065000000 0.0065000000 0.0065000000 0.0065000000 0.0065000000 0.0065000000 0.0065000000 0.0065000000 0.0065000000 0.0065000000 0.0065000000 0.0065000000 0.0065000000 0.0065000000 0.0065000000 0.0065000000 0.0065000000 0.0065000000 0.0065000000 0.0065000000 0.0065000000 0.0065000000 0.0065000000 0.0065000000 0.0065000000 0.0065000000 0.0065000000 0.0065000000 0.0065000000 0.0065000000 0.0065000000 0.0065000000 0.0065000000 0.0065000000 0.0065000000 0.0065000000 0.0065000000 0.0065000000 0.0065000000 0.0065000000 0.0065000000 0.0065000000 0.0065000000 0.0065000000 0.0065000000 0.0065000000 0.0065000000 0.0065000000 0.0065000000 0.0065000000 0.0065000000 0.0065000000 0.0065000000 0.0065000000 0.0065000000 0.0065000000 0.0065000000 0.0065000000 0.0065000000 0.0065000000 0.0065000000 0.0065000000 0.0065000000 0.0065000000 0.0065000000 0.0065000000 0.0065000000 0.0065000000 0.0065000000 0.0065000000 0.0065000000 0.0065000000 0.0065000000 0.0065000000 0.0065000000 0.0065000000 0.0065000000 0.0065000000 0.0065000000 0.0065000000 0.0065000000 0.0065000000 0.0065000000 0.0065000000 0.0065000000 0.0065000000 0.0065000000 0.0065000000 0.0065000000 0.0065000000 0.0065000000 0.0065000000 0.0065000000 0.0065000000 0.0065000000 0.0065000000 0.0065000000 0.0065000000 0.0065000000 0.0065000000 0.0065000000 0.0065000000 0.0065000000 0.0065000000 0.0065000000 0.0065000000 0.0065000000 0.0065000000 0.0065000000 0.0065000000 0.0065000000 0.0065000000 0.0065000000 0.0065000000 0.0065000000 0.0065000000 0.0065000000 0.0065000000 0.0065000000 0.0065000000 0.0065000000 0.0065000000 0.0065000000 0.0065000000 0.0065000000 0.0065000000 0.0065000000 0.0065000000 0.0065000000 0.0065000000 0.0065000000 0.0065000000 0.0065000000 0.0065000000 0.0065000000 0.0065000000 0.0065000000 0.0065000000 0.0065000000 0.0065000000 0.0065000000 0.0065000000 0.0065000000 0.0065000000 0.0065000000 0.0065000000 0.0065000000 0.0065000000 0.0065000000 0.0065000000 0.0065000000 0.0065000000 0.0065000000 0.0065000000 0.0065000000 0.0065000000 0.0065000000 0.0065000000 0.0065000000 0.0065000000 0.0065000000 0.0065000000 0.0065000000 0.0065000000 0.0065000000 0.0065000000 0.0065000000 0.0065000000 0.0065000000 0.0065000000 0.0065000000 0.0065000000 0.0065000000 0.0065000000 0.0065000000 0.0065000000 0.0065000000 0.0065000000 0.0065000000 0.0065000000 0.0065000000 0.0065000000 0.0065000000 0.0065000000 0.0065000000 0.0065000000 0.0065000000 0.0065000000 0.0065000000 0.0065000000 0.0065000000 0.0065000000 0.0065000000 0.0065000000 0.0065000000 0.0065000000 0.0065000000 0.0065000000 0.0065000000 0.0065000000 0.0065000000 0.0065000000 0.0065000000 0.0065000000 0.0065000000 0.0065000000 0.0065000000 0.0065000000 0.0065000000 0.0065000000 0.0065000000 0.0065000000 0.0065000000 0.0065000000 0.0065000000 0.0065000000 0.0065000000 0.0065000000 0.0065000000 0.0065000000 0.0065000000 0.0065000000 0.0065000000 0.0065000000 0.0065000000 0.0065000000 0.0065000000 0.0065000000 0.0065000000 0.0065000000 0.0065000000 0.0065000000 0.0065000000 0.0065000000 0.0065000000 0.0065000000 0.0065000000 0.0065000000 0.0065000000 0.0065000000 0.0065000000 0.0065000000 0.0065000000 0.0065000000 0.0065000000 0.0065000000 0.0065000000 0.0065000000 0.0065000000 0.0065000000 0.0065000000 0.0065000000 0.0065000000 0.0065000000 0.0065000000 0.0065000000 0.0065000000 0.0065000000 0.0065000000 0.0065000000 0.0065000000 0.0065000000 0.0065000000 0.0065000000 0.0065000000 0.0065000000 0.0065000000 0.0065000000 0.0065000000 0.0065000000 0.0065000000 0.0065000000 0.0065000000 0.0065000000 0.0065000000 0.0065000000 0.0065000000 0.0065000000 0.0065000000 0.0065000000 0.0065000000 0.0065000000 0.0065000000 0.0065000000 0.0065000000 0.006500000