<?xml version="1.0"?>
<VTKFile type="UnstructuredGrid" version="0.1" byte_order="LittleEndian">
  <UnstructuredGrid>
    <FieldData>
      <DataArray type="Float32" Name="TIME"  NumberOfTuples="1" format="ascii"> 4.1971092075 </DataArray>
      <DataArray type="Int32"   Name="STEP"  NumberOfTuples="1" format="ascii"> 56280 </DataArray>
    </FieldData>
    <Piece NumberOfPoints="18081" NumberOfCells="18081">
      <Points>
        <DataArray type="Float32" NumberOfComponents="3" format="ascii">
 0.1249437787 0.0814618368 0.0128687142 0.0417458996 0.0997141239 0.0064697552 0.1023697435 0.0351658308 0.0097659869 0.0203008176 0.0167434002 0.0096941140 0.0567505953 0.0242784573 0.0098920875 0.0011472999 0.0230920884 0.0142436563 0.4892420205 0.0165660431 0.0180192796 0.4261301591 0.0418413092 0.0098387098 0.4989065525 0.0070775042 0.0112568208 0.4362023126 0.0316421034 0.0160168620 0.4545227985 0.0145806787 0.0234870240 0.4990281667 0.0440338701 0.0204661849 0.4883201030 0.0114603518 0.0378530946 0.3818159014 0.0223351757 0.0223365609 0.4709376265 0.0529785122 0.0288861257 0.4301289769 0.0189158192 0.0331373519 0.4979197156 0.0295975173 0.0302992380 0.3170430572 0.0837344137 0.0305945743 0.3905245504 0.0411372293 0.0320230670 0.1984715642 0.0020625174 0.0160669238 0.4864704985 0.0028362793 0.0441294853 0.1183356551 0.1015893755 0.0008315399 0.0420965240 0.0927004446 0.0189042993 0.0714717216 0.0405903107 0.0083247030 0.0575018075 0.0486875189 0.0011927782 0.0093471936 0.0576942844 0.0053877776 0.4507380142 0.0019494723 0.0203282561 0.4944288747 0.0060512264 0.0173891172 0.4596996618 0.0260141399 0.0076541212 0.4864050325 0.0225776312 0.0375842314 0.4915478883 0.0223181411 0.0053945682 0.4014749787 0.0701308497 0.0196677478 0.4960970593 0.0302417928 0.0357073076 0.3988814268 0.0661110922 0.0207628423 0.4916312748 0.0322620507 0.0147769786 0.3632125255 0.0300742554 0.0200482243 0.4732862663 0.0242322441 0.0079434579 0.3837095048 0.0365954445 0.0295353945 0.0847759906 0.0624466086 0.0197804791 0.0096709058 0.0679237400 0.0219231845 0.3878951145 0.0232268374 0.0147051219 0.2760990195 0.0961216764 0.0278827171 0.0853504099 0.0065304108 0.0087028005 0.0032612550 0.0981695495 0.0006039230 0.0941115601 0.0627398364 0.0008859239 0.2356043988 0.0672977578 0.0179330523 0.4203709965 0.0092594320 0.0011455137 0.3923561716 0.0399815020 0.0152291314 0.4928292902 0.0288359091 0.0003100368 0.4985594370 0.0774022231 0.0084044674 0.4990381104 0.0868427935 0.0316217759 0.4928080523 0.0127071089 0.0011729260 0.3195391550 0.0585470791 0.0297588879 0.3974444966 0.0747096867 0.0058069960 0.4618331861 0.0407283579 0.0289117560 0.4672759179 0.0510770249 0.0245325222 0.4402382554 0.0334917501 0.0011406524 0.4522984396 0.0615509958 0.0011317421 0.4278075528 0.0226040221 0.0252811931 0.0680872195 0.0809657543 0.0121242574 0.4014338140 0.0618551248 0.0318325882 0.4922169704 0.0707196672 0.0229275395 0.3950100188 0.0493545075 0.0180127605 0.0800910968 0.0541436679 0.0007706387 0.0307752139 0.0070931754 0.0069487975 0.1171331870 0.0577512625 0.0101296149 0.0552625292 0.0367974534 0.0059255036 0.4228275468 0.0183050113 0.0052161200 0.4697392717 0.0165288981 0.0035520944 0.4772644615 0.0124871797 0.0009886535 0.3517140505 0.0263268108 0.0234533612 0.3437891276 0.0025060464 0.0213819499 0.4890790443 0.0618684222 0.0084070747 0.3954707352 0.0813265377 0.0246312169 0.3477130741 0.0673659865 0.0059851769 0.4545785972 0.0191392042 0.0132458602 0.4275520444 0.0064515187 0.0069669099 0.2882904192 0.0391624262 0.0092125712 0.3553307185 0.0373597129 0.0261999626 0.3228119320 0.0196841112 0.0290672387 0.0874024164 0.0813036466 0.0138605855 0.1058751929 0.0990668100 0.0095458646 0.0589684854 0.0779431857 0.0192035998 0.4663709733 0.0931004205 0.0092602664 0.1686318148 0.0228862587 0.0035333517 0.1824484552 0.0120050923 0.0007473496 0.0578572063 0.0673993446 0.0082530190 0.3693504178 0.0007605093 0.0113701978 0.4079373506 0.0286172079 0.0009188162 0.4388257424 0.0016135725 0.0191903810 0.4709112674 0.0466894137 0.0061911454 0.4495934583 0.0156125766 0.0095303324 0.4404217485 0.0087826828 0.0062911091 0.4070434939 0.0312475422 0.0061924508 0.4775519851 0.0694055169 0.0056979666 0.3514766470 0.0773339658 0.0183989517 0.3276993066 0.0481935252 0.0163917722 0.4217740749 0.0737550923 0.0014442123 0.2763848828 0.0207172190 0.0158899093 0.3442212991 0.0620099471 0.0300987301 0.4583995718 0.0119615549 0.0355184608 0.3561987340 0.0425439201 0.0306353435 0.2899836652 0.0594420753 0.0224662592 0.4099807402 0.0104422199 0.0163562687 0.3095657539 0.0583771137 0.0293134426 0.1534294139 0.0115427129 0.0143260692 0.0662567090 0.0409094780 0.0051263264 0.0880015149 0.0617391034 0.0011450253 0.0056703041 0.0892459434 0.0065779023 0.4643502636 0.0083060752 0.0010925379 0.4897495325 0.0438174772 0.0004776902 0.3512549513 0.0511988870 0.0049685018 0.3677082594 0.0192222440 0.0193359435 0.2479325777 0.0160415846 0.0223254982 0.4167616565 0.0606885026 0.0022600326 0.3996124311 0.0483433004 0.0065822141 0.3605928324 0.0617866327 0.0055638806 0.3503365384 0.0688452363 0.0145460494 0.3033590669 0.0777074959 0.0298922773 0.3587291985 0.0533054792 0.0200750849 0.3400682272 0.0685053424 0.0195556782 0.3162355079 0.0025041995 0.0198023837 0.1481793752 0.0494523684 0.0142499256 0.3836268534 0.0036146625 0.0002881997 0.3809462408 0.0133028172 0.0308580456 0.4711167579 0.0657621569 0.0209582669 0.1533960649 0.0219532153 0.0005546414 0.1860649659 0.0015783349 0.0117991236 0.0628269362 0.0536073679 0.0007434382 0.3966424535 0.0285409890 0.0010753645 0.4173786989 0.0261623670 0.0011791369 0.4617502452 0.0047647196 0.0016030749 0.3430187982 0.0484259107 0.0004981065 0.4637645206 0.0469404820 0.0012930182 0.3689416228 0.0304980590 0.0074510487 0.3753241950 0.0392746938 0.0054261610 0.3721094175 0.0606469079 0.0115125485 0.4126544593 0.0610265303 0.0071594420 0.2810779552 0.0435240255 0.0215238603 0.4427469183 0.0761509316 0.0080423579 0.3175991433 0.0240092471 0.0043330473 0.4238372688 0.0618611502 0.0233484211 0.0278583396 0.0957477366 0.0109594246 0.1198353797 0.0161131399 0.0097842216 0.0608964898 0.0542362908 0.0187381603 0.0728536247 0.1013630441 0.0134512876 0.2892573341 0.1226008314 0.0283062758 0.1355853325 0.0054532309 0.0080906377 0.0421207507 0.0176526977 0.0006776577 0.0821965389 0.0121225641 0.0004641978 0.4115399212 0.0119190024 0.0008827928 0.3870333266 0.0295122622 0.0101271859 0.4191926152 0.0010763651 0.0185049021 0.4136274517 0.0542388411 0.0008663224 0.1505466156 0.0167171596 0.0261396918 0.4331502637 0.0511374738 0.0005560003 0.3720992429 0.0488611933 0.0007457853 0.4452531101 0.0908438615 0.0007009045 0.4212499000 0.0512055041 0.0194082316 0.2807262535 0.0566396103 0.0092144841 0.3649340604 0.0382364968 0.0201457289 0.3035269131 0.0345556615 0.0124082135 0.2675141308 0.0180482839 0.0297395594 0.2449875958 0.0607126446 0.0289102921 0.0902371950 0.0829548051 0.0187629226 0.3229382775 0.0044268489 0.0035646514 0.2337121945 0.0356594868 0.0219632302 0.0947683513 0.0459439269 0.0247870659 0.0277232365 0.0228304033 0.0062045463 0.2145397217 0.0306939438 0.0047892072 0.0986891041 0.0090379424 0.0008609553 0.4056482141 0.0020229195 0.0196353407 0.4595939640 0.0016096985 0.0197049849 0.4586177426 0.0010466660 0.0082528517 0.4142971670 0.0086708623 0.0115550734 0.3401246435 0.0223554401 0.0004076479 0.0116050959 0.0324824911 0.0070111037 0.0299752425 0.0833567789 0.0011698622 0.3521895955 0.0661693299 0.0088397639 0.4363911414 0.0769725330 0.0094675431 0.3755147947 0.0663308448 0.0008457325 0.3775919184 0.0734766057 0.0083452249 0.3900398898 0.0717831500 0.0265859050 0.4434489647 0.0987250963 0.0219999140 0.4430547699 0.0822808895 0.0331092692 0.0319982379 0.0814860276 0.0061558006 0.0303827931 0.0522691153 0.0188686749 0.4503849817 0.0383909768 0.0068993550 0.0791576453 0.0479768463 0.0146248418 0.1877836296 0.0195813623 0.0085526735 0.1818211558 0.0423853735 0.0090446621 0.1788185387 0.0369875429 0.0005576809 0.4173663625 0.0009948863 0.0077820831 0.4173295127 0.0154605492 0.0051279845 0.4290438393 0.0154874625 0.0010860658 0.4130529540 0.0383453128 0.0019469547 0.3991224872 0.0521371056 0.0016798534 0.4125560157 0.0332950078 0.0059024477 0.3419992948 0.0103579513 0.0011116233 0.4126025107 0.0729827802 0.0007456627 0.4303818403 0.0368555143 0.0204521231 0.3514813701 0.0463335514 0.0157866982 0.4530304795 0.0292563660 0.0007716097 0.2870870993 0.0854635916 0.0218472338 0.2617727015 0.0001770980 0.0010155243 0.2942114894 0.0697974989 0.0273354457 0.1870156828 0.0901164260 0.0257679188 0.3881111045 0.0620318609 0.0158105804 0.0106077877 0.0468562789 0.0239353945 0.4393695123 0.0487691725 0.0240688286 0.1606168850 0.0268089900 0.0006013553 0.1020981951 0.0221492485 0.0007014791 0.0538360101 0.0449214098 0.0006800024 0.3532118968 0.0355925986 0.0090433851 0.3133403635 0.0184659097 0.0097930022 0.4235151392 0.0083152790 0.0104750923 0.3307520416 0.0473464166 0.0011946346 0.4497054320 0.0920523931 0.0023872967 0.0855929044 0.0449551571 0.0154773250 0.4080737104 0.0205784235 0.0066533909 0.4707918367 0.0905568825 0.0006582198 0.4947339071 0.0816373492 0.0028899016 0.2868069368 0.0624329300 0.0007835523 0.4799765508 0.0704925660 0.0182218430 0.3273422733 0.0586923562 0.0160230675 0.2385437179 0.0592477266 0.0116696666 0.2415833538 0.0644993339 0.0210798893 0.0386129195 0.0363856051 0.0024551548 0.2430372389 0.0553586928 0.0045679852 0.3397906274 0.1067836953 0.0250057539 0.4490260051 0.0570294237 0.0177458720 0.1780464178 0.0290546408 0.0080038094 0.1899647699 0.0442547260 0.0078761823 0.1878441028 0.0117449566 0.0008294520 0.3773880321 0.0099450277 0.0096087039 0.0609437869 0.0636462520 0.0113879251 0.3282638183 0.0385381628 0.0061282055 0.3660615638 0.0489581813 0.0013429741 0.3279136232 0.0239274040 0.0008310943 0.4539979853 0.0677846802 0.0055315656 0.3107971429 0.0458998464 0.0050094084 0.4478464175 0.0441676306 0.0181354385 0.4472010837 0.0723042147 0.0208046781 0.4171990476 0.0420396
[...]
      <PointData Scalars="smoothLength">
        <DataArray type="Float32" Name="smoothLength" format="ascii">
 0.0065000000 0.0065000000 0.0065000000 0.0065000000 0.0065000000 0.0065000000 0.0065000000 0.0065000000 0.0065000000 0.0065000000 0.0065000000 0.0065000000 0.0065000000 0.0065000000 0.0065000000 0.0065000000 0.0065000000 0.0065000000 0.0065000000 0.0065000000 0.0065000000 0.0065000000 0.0065000000 0.0065000000 0.0065000000 0.0065000000 0.0065000000 0.0065000000 0.0065000000 0.0065000000 0.0065000000 0.0065000000 0.0065000000 0.0065000000 0.0065000000 0.0065000000 0.0065000000 0.0065000000 0.0065000000 0.0065000000 0.0065000000 0.0065000000 0.0065000000 0.0065000000 0.0065000000 0.0065000000 0.0065000000 0.0065000000 0.0065000000 0.0065000000 0.0065000000 0.0065000000 0.0065000000 0.0065000000 0.0065000000 0.0065000000 0.0065000000 0.0065000000 0.0065000000 0.0065000000 0.0065000000 0.0065000000 0.0065000000 0.0065000000 0.0065000000 0.0065000000 0.0065000000 0.0065000000 0.0065000000 0.0065000000 0.0065000000 0.0065000000 0.0065000000 0.0065000000 0.0065000000 0.0065000000 0.0065000000 0.0065000000 0.0065000000 0.0065000000 0.0065000000 0.0065000000 0.0065000000 0.0065000000 0.0065000000 0.0065000000 0.0065000000 0.0065000000 0.0065000000 0.0065000000 0.0065000000 0.0065000000 0.0065000000 0.0065000000 0.0065000000 0.0065000000 0.0065000000 0.0065000000 0.0065000000 0.0065000000 0.0065000000 0.0065000000 0.0065000000 0.0065000000 0.0065000000 0.0065000000 0.0065000000 0.0065000000 0.0065000000 0.0065000000 0.0065000000 0.0065000000 0.0065000000 0.0065000000 0.0065000000 0.0065000000 0.0065000000 0.0065000000 0.0065000000 0.0065000000 0.0065000000 0.0065000000 0.0065000000 0.0065000000 0.0065000000 0.0065000000 0.0065000000 0.0065000000 0.0065000000 0.0065000000 0.0065000000 0.0065000000 0.0065000000 0.0065000000 0.0065000000 0.0065000000 0.0065000000 0.0065000000 0.0065000000 0.0065000000 0.0065000000 0.0065000000 0.0065000000 0.0065000000 0.0065000000 0.0065000000 0.0065000000 0.0065000000 0.0065000000 0.0065000000 0.0065000000 0.0065000000 0.0065000000 0.0065000000 0.0065000000 0.0065000000 0.0065000000 0.0065000000 0.0065000000 0.0065000000 0.0065000000 0.0065000000 0.0065000000 0.0065000000 0.0065000000 0.0065000000 0.0065000000 0.0065000000 0.0065000000 0.0065000000 0.0065000000 0.0065000000 0.0065000000 0.0065000000 0.0065000000 0.0065000000 0.0065000000 0.0065000000 0.0065000000 0.0065000000 0.0065000000 0.0065000000 0.0065000000 0.0065000000 0.0065000000 0.0065000000 0.0065000000 0.0065000000 0.0065000000 0.0065000000 0.0065000000 0.0065000000 0.0065000000 0.0065000000 0.0065000000 0.0065000000 0.0065000000 0.0065000000 0.0065000000 0.0065000000 0.0065000000 0.0065000000 0.0065000000 0.0065000000 0.0065000000 0.0065000000 0.0065000000 0.0065000000 0.0065000000 0.0065000000 0.0065000000 0.0065000000 0.0065000000 0.0065000000 0.0065000000 0.0065000000 0.0065000000 0.0065000000 0.0065000000 0.0065000000 0.0065000000 0.0065000000 0.0065000000 0.0065000000 0.0065000000 0.0065000000 0.0065000000 0.0065000000 0.0065000000 0.0065000000 0.0065000000 0.0065000000 0.0065000000 0.0065000000 0.0065000000 0.0065000000 0.0065000000 0.0065000000 0.0065000000 0.0065000000 0.0065000000 0.0065000000 0.0065000000 0.0065000000 0.0065000000 0.0065000000 0.0065000000 0.0065000000 0.0065000000 0.0065000000 0.0065000000 0.0065000000 0.0065000000 0.0065000000 0.0065000000 0.0065000000 0.0065000000 0.0065000000 0.0065000000 0.0065000000 0.0065000000 0.0065000000 0.0065000000 0.0065000000 0.0065000000 0.0065000000 0.0065000000 0.0065000000 0.0065000000 0.0065000000 0.0065000000 0.0065000000 0.0065000000 0.0065000000 0.0065000000 0.0065000000 0.0065000000 0.0065000000 0.0065000000 0.0065000000 0.0065000000 0.0065000000 0.0065000000 0.0065000000 0.0065000000 0.0065000000 0.0065000000 0.0065000000 0.0065000000 0.0065000000 0.0065000000 0.0065000000 0.0065000000 0.0065000000 0.0065000000 0.0065000000 0.0065000000 0.0065000000 0.0065000000 0.0065000000 0.0065000000 0.0065000000 0.0065000000 0.0065000000 0.0065000000 0.0065000000 0.0065000000 0.0065000000 0.0065000000 0.0065000000 0.0065000000 0.0065000000 0.0065000000 0.0065000000 0.0065000000 0.0065000000 0.0065000000 0.0065000000 0.0065000000 0.0065000000 0.0065000000 0.0065000000 0.0065000000 0.0065000000 0.0065000000 0.0065000000 0.0065000000 0.0065000000 0.0065000000 0.0065000000 0.0065000000 0.0065000000 0.0065000000 0.0065000000 0.0065000000 0.0065000000 0.0065000000 0.0065000000 0.0065000000 0.0065000000 0.0065000000 0.0065000000 0.0065000000 0.0065000000 0.0065000000 0.0065000000 0.0065000000 0.0065000000 0.0065000000 0.0065000000 0.0065000000 0.0065000000 0.0065000000 0.0065000000 0.0065000000 0.0065000000 0.0065000000 0.0065000000 0.0065000000 0.0065000000 0.0065000000 0.0065000000 0.0065000000 0.0065000000 0.0065000000 0.0065000000 0.0065000000 0.0065000000 0.0065000000 0.0065000000 0.0065000000 0.0065000000 0.0065000000 0.0065000000 0.0065000000 0.0065000000 0.0065000000 0.0065000000 0.0065000000 0.0065000000 0.0065000000 0.0065000000 0.0065000000 0.0065000000 0.0065000000 0.0065000000 0.0065000000 0.0065000000 0.0065000000 0.0065000000 0.0065000000 0.0065000000 0.0065000000 0.0065000000 0.0065000000 0.0065000000 0.0065000000 0.0065000000 0.0065000000 0.0065000000 0.0065000000 0.0065000000 0.0065000000 0.0065000000 0.0065000000 0.0065000000 0.0065000000 0.0065000000 0.0065000000 0.0065000000 0.0065000000 0.0065000000 0.0065000000 0.0065000000 0.0065000000 0.0065000000 0.0065000000 0.0065000000 0.0065000000 0.0065000000 0.0065000000 0.0065000000 0.0065000000 0.0065000000 0.0065000000 0.0065000000 0.0065000000 0.0065000000 0.0065000000 0.0065000000 0.0065000000 0.0065000000 0.0065000000 0.0065000000 0.0065000000 0.0065000000 0.0065000000 0.0065000000 0.0065000000 0.0065000000 0.0065000000 0.0065000000 0.0065000000 0.0065000000 0.0065000000 0.0065000000 0.0065000000 0.0065000000 0.0065000000 0.0065000000 0.0065000000 0.0065000000 0.0065000000 0.0065000000 0.0065000000 0.0065000000 0.0065000000 0.0065000000 0.0065000000 0.0065000000 0.0065000000 0.0065000000 0.0065000000 0.0065000000 0.0065000000 0.0065000000 0.0065000000 0.0065000000 0.0065000000 0.0065000000 0.0065000000 0.0065000000 0.0065000000 0.0065000000 0.0065000000 0.0065000000 0.0065000000 0.0065000000 0.0065000000 0.0065000000 0.0065000000 0.0065000000 0.0065000000 0.0065000000 0.0065000000 0.0065000000 0.0065000000 0.0065000000 0.0065000000 0.0065000000 0.0065000000 0.0065000000 0.0065000000 0.0065000000 0.0065000000 0.0065000000 0.0065000000 0.0065000000 0.0065000000 0.0065000000 0.0065000000 0.0065000000 0.0065000000 0.0065000000 0.0065000000 0.0065000000 0.0065000000 0.0065000000 0.0065000000 0.0065000000 0.0065000000 0.0065000000 0.0065000000 0.0065000000 0.0065000000 0.0065000000 0.0065000000 0.0065000000 0.0065000000 0.0065000000 0.0065000000 0.0065000000 0.0065000000 0.0065000000 0.0065000000 0.0065000000 0.0065000000 0.0065000000 0.0065000000 0.0065000000 0.0065000000 0.0065000000 0.0065000000 0.0065000000 0.0065000000 0.0065000000 0.0065000000 0.0065000000 0.0065000000 0.0065000000 0.0065000000 0.0065000000 0.0065000000 0.0065000000 0.0065000000 0.0065000000 0.0065000000 0.0065000000 0.0065000000 0.0065000000 0.0065000000 0.0065000000 0.0065000000 0.0065000000 0.0065000000 0.0065000000 0.0065000000 0.0065000000 0.0065000000 0.0065000000 0.0065000000 0.0065000000 0.0065000000 0.0065000000 0.0065000000 0.0065000000 0.0065000000 0.0065000000 0.0065000000 0.0065000000 0.0065000000 0.0065000000 0.0065000000 0.0065000000 0.0065000000 0.0065000000 0.0065000000 0.0065000000 0.0065000000 0.0065000000 0.0065000000 0.0065000000 0.0065000000 0.0065000000 0.0065000000 0.0065000000 0.0065000000 0.0065000000 0.0065000000 0.0065000000 0.0065000000 0.0065000000 0.0065000000 0.0065000000 0.0065000000 0.0065000000 0.0065000000 0.0065000000 0.0065000000 0.0065000000 0.0065000000 0.0065000000 0.0065000000 0.0065000000 0.0065000000 0.0065000000 0.0065000000 0.0065000000 0.0065000000 0.0065000000 0.0065000000 0.0065000000 0.0065000000 0.0065000000 0.0065000000 0.0065000000 0.0065000000 0.0065000000 0.0065000000 0.0065000000 0.0065000000 0.0065000000 0.0065000000 0.0065000000 0.0065000000 0.0065000000 0.0065000000 0.0065000000 0.0065000000 0.0065000000 0.0065000000 0.0065000000 0.0065000000 0.0065000000 0.0065000000 0.0065000000 0.0065000000 0.0065000000 0.0065000000 0.0065000000 0.0065000000 0.0065000000 0.0065000000 0.0065000000 0.0065000000 0.0065000000 0.0065000000 0.0065000000 0.0065000000 0.0065000000 0.0065000000 0.0065000000 0.0065000000 0.0065000000 0.0065000000 0.0065000000 0.0065000000 0.0065000000 0.0065000000 0.0065000000 0.0065000000 0.0065000000 0.0065000000 0.0065000000 0.0065000000 0.0065000000 0.0065000000 0.0065000000 0.0065000000 0.0065000000 0.0065000000 0.0065000000 0.0065000000 0.0065000000 0.0065000000 0.0065000000 0.0065000000 0.0065000000 0.0065000000 0.0065000000 0.0065000000 0.0065000000 0.0065000000 0.0065000000 0.0065000000 0.0065000000 0.0065000000 0.0065000000 0.0065000000 0.0065000000 0.0065000000 0.0065000000 0.0065000000 0.0065000000 0.0065000000 0.0065000000 0.0065000000 0.0065000000 0.0065000000 0.0065000000 0.0065000000 0.0065000000 0.0065000000 0.0065000000 0.0065000000 0.0065000000 0.0065000000 0.0065000000 0.0065000000 0.0065000000 0.0065000000 0.0065000000 0.0065000000 0.0065000000 0.0065000000 0.0065000000 0.0065000000 0.0065000000 0.0065000000 0.0065000000 0.0065000000 0.0065000000 0.0065000000 0.0065000000 0.0065000000 0.0065000000 0.0065000000 0.0065000000 0.0065000000 0.0065000000 0.0065000000 0.0065000000 0.0065000000 0.0065000000 0.0065000000 0.0065000000 0.0065000000 0.0065000000 0.0065000000 0.0065000000 0.0065000000 0.0065000000 0.0065000000 0.0065000000 0.0065000000 0.0065000000 0.0065000000 0.0065000000 0.0065000000 0.0065000000 0.0065000000 0.0065000000 0.0065000000 0.0065000000 0.0065000000 0.0065000000 0.0065000000 0.0065000000 0.0065000000 0.0065000000 0.0065000000 0.0065000000 0.0065000000 0.0065000000 0.0065000000 0.0065000000 0.0065000000 0.0065000000 0.0065000000 0.0065000000 0.0065000000 0.0065000000 0.0065000000 0.0065000000 0.0065000000 0.0065000000 0.0065000000 0.0065000000 0.0065000000 0.0065000000 0.0065000000 0.0065000000 0.0065000000 0.0065000000 0.0065000000 0.0065000000 0.0065000000 0.0065000000 0.0065000000 0.0065000000 0.0065000000 0.0065000000 0.0065000000 0.0065000000 0.0065000000 0.0065000000 0.0065000000 0.0065000000 0.0065000000 0.0065000000 0.0065000000 0.0065000000 0.0065000000 0.0065000000 0.0065000000 0.0065000000 0.0065000000 0.0065000000 0.0065000000 0.0065000000 0.0065000000 0.0065000000 0.0065000000 0.0065000000 0.0065000000 0.0065000000 0.0065000000 0.0065000000 0.0065000000 0.0065000000 0.0065000000 0.0065000000 0.0065000000 0.0065000000 0.0065000000 0.0065000000 0.0065000000 0.0065000000 0.0065000000 0.0065000000 0.0065000000 0.0065000000 0.0065000000 0.0065000000 0.0065000000 0.0065000000 0.0065000000 0.0065000000 0.0065000000 0.0065000000 0.0065000000 0.0065000000 0.0065000000 0.0065000000 0.0065000000 0.0065000000 0.0065000000 0.0065000000 0.0065000000 0.0065000000 0.0065000000 0.0065000000 0.0065000000 0.0065000000 0.0065000000 0.0065000000 0.0065000000 0.0065000000 0.0065000000 0.0065000000 0.0065000000 0.0065000000 0.0065000000 0.0065000000 0.0065000000 0.0065000000 0.0065000000 0.0065000000 0.0065000000 0.0065000000 0.0065000000 0.0065000000 0.0065000000 0.0065000000 0.0065000000 0.0065000000 0.0065000000 0.0065000000 0.0065000000 0.0065000000 0.0065000000 0.0065000000 0.0065000000 0.0065000000 0.0065000000 0.0065000000 0.0065000000 0.0065000000 0.0065000000 0.0065000000 0.0065000000 0.0065000000 0.0065000000 0.0065000000 0.0065000000 0.0065000000 0.0065000000 0.0065000000 0.0065000000 0.0065000000 0.0065000000 0.0065000000 0.0065000000 0.0065000000 0.0065000000 0.0065000000 0.0065000000 0.0065000000 0.0065000000 0.0065000000 0.0065000000 0.0065000000 0.0065000000 0.0065000000 0.0065000000 0.0065000000 0.0065000000 0.0065000000 0.0065000000 0.0065000000 0.0065000000 0.0065000000 0.0065000000 0.0065000000 0.0065000000 0.0065000000 0.0065000000 0.0065000000 0.0065000000 0.0065000000 0.0065000000 0.0065000000 0.0065000000 0.0065000000 0.0065000000 0.0065000000 0.0065000000 0.0065000000 0.0065000000 0.0065000000 0.0065000000 0.0065000000 0.0065000000 0.0065000000 0.0065000000 0.0065000000 0.0065000000 0.0065000000 0.0065000000 0.0065000000 0.0065000000 0.0065000000 0.0065000000 0.0065000000 0.0065000000 0.0065000000 0.0065000000 0.0065000000 0.0065000000 0.0065000000 0.0065000000 0.0065000000 0.0065000000 0.0065000000 0.0065000000 0.0065000000 0.0065000000 0.0065000000 0.0065000000 0.0065000000 0.0065000000 0.0065000000 0.0065000000 0.0065000000 0.0065000000 0.0065000000 0.0065000000 0.0065000000 0.0065000000 0.0065000000 0.0065000000 0.0065000000 0.0065000000 0.0065000000 0.0065000000 0.0065000000 0.0065000000 0.0065000000 0.0065000000 0.0065000000 0.0065000000 0.0065000000 0.0065000000 0.0065000000 0.0065000000 0.0065000000 0.0065000000 0.0065000000 0.0065000000 0.0065000000 0.0065000000 0.0065000000 0.0065000000 0.0065000000 0.0065000000 0.0065000000 0.0065000000 0.0065000000 0.0065000000 0.0065000000 0.0065000000 0.0065000000 0.0065000000 0.0065000000 0.0065000000 0.0065000000 0.0065000000 0.0065000000 0.0065000000 0.0065000000 0.0065000000 0.0065000000 0.0065000000 0.0065000000 0.0065000000 0.0065000000 0.0065000000 0.0065000000 0.0065000000 0.0065000000 0.0065000000 0.0065000000 0.0065000000 0.0065000000 0.0065000000 0.0065000000 0.0065000000 0.0065000000 0.0065000000 0.0065000000 0.0065000000 0.0065000000 0.0065000000 0.0065000000 0.0065000000 0.0065000000 0.0065000000 0.0065000000 0.0065000000 0.0065000000 0.0065000000 0.0065000000 0.0065000000 0.0065000000 0.0065000000 0.0065000000 0.0065000000 0.0065000000 0.0065000000 0.0065000000 0.0065000000 0.0065000000 0.0065000000 0.0065000000 0.0065000000 0.0065000000 0.0065000000 0.0065000000 0.0065000000 0.0065000000 0.0065000000 0.0065000000 0.0065000000 0.0065000000 0.0065000000 0.0065000000 0.0065000000 0.0065000000 0.0065000000 0.0065000000 0.0065000000 0.0065000000 0.0065000000 0.0065000000 0.0065000000 0.0065000000 0.0065000000 0.0065000000 0.0065000000 0.0065000000 0.0065000000 0.0065000000 0.0065000000 0.0065000000 0.0065000000 0.0065000000 0.0065000000 0.0065000000 0.0065000000 0.0065000000 0.0065000000 0.0065000000 0.0065000000 0.0065000000 0.0065000000 0.0065000000 0.0065000000 0.0065000000 0.0065000000 0.0065000000 0.0065000000 0.0065000000 0.0065000000 0.0065000000 0.0065000000 0.0065000000 0.0065000000 0.0065000000 0.0065000000 0.0065000000 0.0065000000 0.0065000000 0.0065000000 0.0065000000 0.0065000000 0.0065000000 0.0065000000 0.0065000000 0.0065000000 0.0065000000 0.0065000000 0.0065000000 0.0065000000 0.0065000000 0.0065000000 0.0065000000 0.0065000000 0.0065000000 0.0065000000 0.0065000000 0.0065000000 0.0065000000 0.0065000000 0.0065000000 0.0065000000 0.0065000000 0.0065000000 0.0065000000 0.0065000000 0.0065000000 0.0065000000 0.0065000000 0.0065000000 0.0065000000 0.0065000000 0.0065000000 0.0065000000 0.0065000000 0.0065000000 0.0065000000 0.0065000000 0.0065000000 0.0065000000 0.0065000000 0.0065000000 0.0065000000 0.0065000000 0.0065000000 0.0065000000 0.0065000000 0.0065000000 0.0065000000 0.0065000000 0.0065000000 0.0065000000 0.0065000000 0.0065000000 0.0065000000 0.0065000000 0.0065000000 0.0065000000 0.0065000000 0.0065000000 0.0065000000 0.0065000000 0.0065000000 0.0065000000 0.0065000000 0.0065000000 0.0065000000 0.0065000000 0.0065000000 0.0065000000 0.0065000000 0.0065000000 0.0065000000 0.0065000000 0.0065000000 0.0065000000 0.0065000000 0.0065000000 0.0065000000 0.0065000000 0.0065000000 0.0065000000 0.0065000000 0.0065000000 0.0065000000 0.0065000000 0.0065000000 0.0065000000 0.0065000000 0.0065000000 0.0065000000 0.0065000000 0.0065000000 0.0065000000 0.0065000000 0.0065000000 0.0065000000 0.0065000000 0.0065000000 0.0065000000 0.0065000000 0.0065000000 0.0065000000 0.0065000000 0.0065000000 0.0065000000 0.0065000000 0.0065000000 0.0065000000 0.0065000000 0.0065000000 0.0065000000 0.0065000000 0.0065000000 0.0065000000 0.0065000000 0.0065000000 0.0065000000 0.0065000000 0.0065000000 0.0065000000 0.0065000000 0.0065000000 0.0065000000 0.0065000000 0.0065000000 0.0065000000 0.0065000000 0.0065000000 0.0065000000 0.0065000000 0.0065000000 0.0065000000 0.0065000000 0.0065000000 0.0065000000 0.0065000000 0.0065000000 0.0065000000 0.0065000000 0.0065000000 0.0065000000 0.0065000000 0.0065000000 0.0065000000 0.0065000000 0.0065000000 0.0065000000 0.0065000000 0.0065000000 0.0065000000 0.0065000000 0.0065000000 0.0065000000 0.0065000000 0.0065000000 0.0065000000 0.0065000000 0.0065000000 0.0065000000 0.0065000000 0.0065000000 0.0065000000 0.0065000000 0.0065000000 0.0065000000 0.0065000000 0.0065000000 0.0065000000 0.0065000000 0.0065000000 0.0065000000 0.0065000000 0.0065000000 0.0065000000 0.0065000000 0.0065000000 0.0065000000 0.0065000000 0.0065000000 0.0065000000 0.0065000000 0.0065000000 0.0065000000 0.0065000000 0.0065000000 0.0065000000 0.0065000000 0.0065000000 0.0065000000 0.0065000000 0.0065000000 0.0065000000 0.0065000000 0.0065000000 0.0065000000 0.0065000000 0.0065000000 0.0065000000 0.0065000000 0.0065000000 0.0065000000 0.0065000000 0.0065000000 0.0065000000 0.0065000000 0.0065000000 0.0065000000 0.0065000000 0.0065000000 0.0065000000 0.0065000000 0.0065000000 0.0065000000 0.0065000000 0.0065000000 0.0065000000 0.0065000000 0.0065000000 0.0065000000 0.0065000000 0.0065000000 0.0065000000 0.0065000000 0.0065000000 0.0065000000 0.0065000000 0.0065000000 0.0065000000 0.0065000000 0.0065000000 0.0065000000 0.0065000000 0.0065000000 0.0065000000 0.0065000000 0.0065000000 0.0065000000 0.0065000000 0.0065000000 0.0065000000 0.0065000000 0.0065000000 0.0065000000 0.0065000000 0.0065000000 0.0065000000 0.0065000000 0.0065000000 0.0065000000 0.0065000000 0.0065000000 0.0065000000 0.0065000000 0.0065000000 0.0065000000 0.0065000000 0.0065000000 0.0065000000 0.0065000000 0.0065000000 0.0065000000 0.0065000000 0.0065000000 0.0065000000 0.0065000000 0.0065000000 0.0065000000 0.0065000000 0.0065000000 0.0065000000 0.0065000000 0.0065000000 0.0065000000 0.0065000000 0.0065000000 0.0065000000 0.0065000000 0.0065000000 0.0065000000 0.0065000000 0.0065000000 0.0065000000 0.0065000000 0.0065000000 0.0065000000 0.0065000000 0.0065000000 0.0065000000 0.0065000000 0.0065000000 0.0065000000 0.0065000000 0.0065000000 0.0065000000 0.0065000000 0.0065000000 0.0065000000 0.0065000000 0.0065000000 0.0065000000 0.0065000000 0.0065000000 0.0065000000 0.0065000000 0.0065000000 0.0065000000 0.0065000000 0.0065000000 0.0065000000 0.0065000000 0.0065000000 0.0065000000 0.0065000000 0.0065000000 0.0065000000 0.0065000000 0.0065000000 0.0065000000 0.0065000000 0.0065000000 0.0065000000 0.0065000000 0.0065000000 0.0065000000 0.0065000000 0.0065000000 0.0065000000 0.0065000000 0.0065000000 0.0065000000 0.0065000000 0.0065000000 0.0065000000 0.0065000000 0.0065000000 0.0065000000 0.0065000000 0.0065000000 0.0065000000 0.0065000000 0.0065000000 0.0065000000 0.0065000000 0.0065000000 0.0065000000 0.0065000000 0.0065000000 0.0065000000 0.0065000000 0.0065000000 0.0065000000 0.0065000000 0.0065000000 0.0065000000 0.0065000000 0.0065000000 0.0065000000 0.0065000000 0.0065000000 0.0065000000 0.0065000000 0.0065000000 0.0065000000 0.0065000000 0.0065000000 0.0065000000 0.0065000000 0.0065000000 0.0065000000 0.0065000000 0.0065000000 0.0065000000 0.0065000000 0.0065000000 0.0065000000 0.0065000000 0.0065000000 0.0065000000 0.0065000000 0.0065000000 0.0065000000 0.0065000000 0.0065000000 0.0065000000 0.0065000000 0.0065000000 0.0065000000 0.0065000000 0.0065000000 0.0065000000 0.0065000000 0.0065000000 0.0065000000 0.0065000000 0.0065000000 0.0065000000 0.0065000000 0.0065000000 0.0065000000 0.0065000000 0.0065000000 0.0065000000 0.0065000000 0.0065000000 0.0065000000 0.006500000