<?xml version="1.0"?>
<VTKFile type="UnstructuredGrid" version="0.1" byte_order="LittleEndian">
  <UnstructuredGrid>
    <FieldData>
      <DataArray type="Float32" Name="TIME"  NumberOfTuples="1" format="ascii"> 3.4975910062 </DataArray>
      <DataArray type="Int32"   Name="STEP"  NumberOfTuples="1" format="ascii"> 46900 </DataArray>
    </FieldData>
    <Piece NumberOfPoints="18081" NumberOfCells="18081">
      <Points>
        <DataArray type="Float32" NumberOfComponents="3" format="ascii">
 0.0760669372 0.0218746757 0.0004866499 0.0776041607 0.0019755344 0.0182043241 0.0430470937 0.0017327035 0.0182099937 0.2359834380 0.0179060687 0.0033827507 0.1931957708 0.0238364750 0.0168183665 0.0963154337 0.0025174838 0.0002257726 0.3901964106 0.0017117408 0.0005769315 0.3989802434 0.0230915856 0.0009857845 0.4346443165 0.0065865181 0.0224060953 0.1695320298 0.0069083328 0.0237955361 0.2330314327 0.0250844860 0.0045571451 0.3580413737 0.0572963460 0.0243743842 0.4730663475 0.0504832563 0.0012355663 0.3732241617 0.0681445808 0.0209820929 0.4148337245 0.0154221880 0.0146969171 0.4243581463 0.0435562274 0.0008847881 0.4317663707 0.0010799874 0.0053128688 0.3545643061 0.0404724400 0.0090518357 0.1411507322 0.0156762648 0.0237824392 0.4404912864 0.0110707425 0.0228934325 0.2690201824 0.0640781768 0.0227336449 0.0320445482 0.0148242775 0.0007851013 0.0141773860 0.0076802852 0.0044961050 0.0010218582 0.0873513408 0.0007008828 0.0119335659 0.0407821029 0.0100241972 0.2184457455 0.0019539179 0.0164922335 0.3347921067 0.0091681984 0.0006540257 0.3216640739 0.0003801148 0.0006524496 0.4738770532 0.0012925262 0.0112287873 0.4041943453 0.0168152529 0.0237875143 0.4140572175 0.0615583674 0.0009598195 0.4109158941 0.0319059749 0.0051318490 0.3956399049 0.0776597049 0.0004896494 0.4239039394 0.0660951241 0.0228262512 0.4042879075 0.0355015696 0.0139625209 0.3997259140 0.0017487106 0.0142568229 0.4567005942 0.0279567488 0.0142503467 0.4050328588 0.0009467052 0.0101542287 0.1306256462 0.0028069023 0.0302039418 0.1635905691 0.0183202255 0.0165859671 0.0210095006 0.0143397303 0.0095444286 0.2963113268 0.0249351145 0.0166641139 0.1411038108 0.0005484548 0.0048043883 0.0750614771 0.0012761528 0.0011273225 0.0702983568 0.0016846372 0.0008312282 0.0291559820 0.0063302917 0.0008010117 0.1877961421 0.0085105090 0.0206677337 0.3805515530 0.0072565413 0.0004788496 0.3865909365 0.0529111636 0.0010277608 0.2070318333 0.0376857696 0.0192194855 0.1604338426 0.0288575146 0.0298920138 0.3626138173 0.0008054493 0.0006463189 0.4729586590 0.0557816894 0.0009655810 0.3843924812 0.0790750609 0.0073898240 0.3862158495 0.0827342457 0.0013970536 0.3829469496 0.0386123702 0.0158059940 0.3273778320 0.0472907234 0.0135155034 0.2486173231 0.0082446393 0.0132219500 0.4238522405 0.0179673787 0.0202546281 0.4424996631 0.0201732743 0.0226819244 0.4662368224 0.0119925471 0.0218563308 0.3296815518 0.0331036216 0.0098874100 0.1934205236 0.0581310691 0.0327774662 0.0441553257 0.0146853140 0.0008740208 0.1112911482 0.0058889957 0.0099931753 0.0935099974 0.0141726432 0.0193039123 0.1624769485 0.0064987816 0.0238218168 0.2432596446 0.0266058833 0.0155033551 0.2875362607 0.0078909979 0.0086348009 0.3992286483 0.0092875913 0.0003921479 0.3064341038 0.0062154728 0.0071931104 0.4919397629 0.0175830191 0.0117513053 0.4289305380 0.0376264896 0.0182840806 0.3912049311 0.0864790410 0.0058973516 0.3562313445 0.0703669323 0.0085593646 0.3249716681 0.0810826224 0.0175586737 0.3940122091 0.0199474695 0.0149027742 0.2878841612 0.0227601268 0.0174405917 0.3148238122 0.0477296053 0.0177405107 0.0502255099 0.0145542748 0.0145834208 0.1800942810 0.0273602921 0.0144752592 0.0276321808 0.0157298033 0.0123218847 0.3702108986 0.0814861981 0.0160286055 0.3345155515 0.0257665771 0.0061700047 0.0907467050 0.0192213045 0.0052652243 0.1067757312 0.0011109800 0.0063871162 0.2263534129 0.0069563036 0.0108739835 0.1062056586 0.0008385120 0.0012337659 0.0502938074 0.0061854904 0.0014983301 0.2698788085 0.0206305707 0.0018776376 0.3558348507 0.0317856518 0.0002564896 0.4606815462 0.0234075854 0.0138340027 0.1722930937 0.0419360671 0.0361008837 0.4710936091 0.0390830753 0.0009334492 0.4496034437 0.0548108049 0.0106347476 0.2944878652 0.0586504459 0.0083031044 0.3956546630 0.0483639294 0.0004931719 0.4356831412 0.0829031313 0.0054607153 0.3857740313 0.0105857817 0.0139843927 0.1148690934 0.0084512913 0.0255306737 0.2903871841 0.0172672129 0.0159887470 0.1929000693 0.0410739262 0.0325958368 0.4291527734 0.0195628292 0.0228795218 0.3285076266 0.0190329994 0.0235317545 0.3140018172 0.0676317143 0.0235334577 0.0623244875 0.0272393279 0.0008205833 0.1022840053 0.0203309084 0.0014172152 0.1544042602 0.0011993687 0.0057752050 0.0576421477 0.0012271882 0.0079112857 0.1575016456 0.0007156388 0.0005625047 0.2138753207 0.0043058701 0.0001582563 0.4105487794 0.0172041008 0.0008418428 0.4935346319 0.0089991953 0.0014816538 0.2478093561 0.0264616718 0.0110374783 0.3103170938 0.0217461636 0.0127625152 0.3504205805 0.0549637968 0.0041729652 0.3257103377 0.0499867376 0.0055934983 0.2888417651 0.0673819922 0.0190402495 0.3666397399 0.0759390338 0.0154636467 0.4609422168 0.0221267500 0.0011302192 0.1456822331 0.0312470435 0.0165228829 0.2121668045 0.0218842031 0.0001837349 0.0015840833 0.0176645420 0.0212940960 0.0577146286 0.0025756726 0.0176262139 0.4284482844 0.0182070581 0.0106374877 0.3622358447 0.0415080981 0.0068191547 0.2096285237 0.0034992033 0.0054959059 0.1204122446 0.0059118861 0.0093564576 0.0908332632 0.0005029280 0.0014955409 0.0062040035 0.0366148285 0.0013364993 0.1379394325 0.0138710463 0.0091401308 0.2357013956 0.0006151292 0.0047594307 0.4256105298 0.0415102691 0.0057535512 0.2359848748 0.0270755343 0.0003647085 0.2355556690 0.0034302124 0.0004333328 0.4617589486 0.0617424807 0.0007507795 0.4630810495 0.0068918173 0.0006345735 0.4239602524 0.0907237700 0.0007690533 0.3488185078 0.0629854577 0.0109645681 0.3659097683 0.0842541868 0.0139326318 0.3195730366 0.0133004404 0.0170517029 0.2636721110 0.0300433828 0.0180719350 0.1252642142 0.0117371775 0.0145971911 0.1598179692 0.0355745648 0.0302740011 0.0085954873 0.0468899123 0.0192563189 0.3361869476 0.0635951247 0.0240739687 0.2024678872 0.0303856638 0.0284341330 0.1525826431 0.0010244848 0.0012596720 0.0159903760 0.0157822113 0.0126382048 0.1221539204 0.0349412458 0.0260964824 0.0863356725 0.0017756090 0.0160944069 0.1230275227 0.0165461112 0.0042109641 0.1833668422 0.0375225420 0.0117458312 0.4591216739 0.0125412604 0.0008458101 0.2478630167 0.0219223146 0.0001911020 0.2570063649 0.0146844425 0.0017167342 0.2902178588 0.0304223951 0.0046110040 0.4277815417 0.0722573778 0.0227675131 0.3720017689 0.0840669705 0.0051650333 0.2271344787 0.0505869991 0.0169210567 0.2764055620 0.0134184279 0.0003377073 0.3895551618 0.0932119316 0.0158879247 0.2745308788 0.0367117943 0.0150347034 0.0090742226 0.0522391885 0.0063593752 0.0197590391 0.0689914626 0.0131424379 0.4133239728 0.0805923235 0.0162305913 0.1227255466 0.0289203374 0.0277033325 0.2205984703 0.0923460107 0.0265705868 0.1761262663 0.0004219781 0.0027588679 0.1409430194 0.0627963424 0.0221702823 0.0633680398 0.0012775068 0.0098849677 0.0736287501 0.0060275888 0.0139920505 0.0379243046 0.0070066819 0.0102461773 0.2758487050 0.0080131600 -0.0001404218 0.3951885009 0.0141632293 0.0007533531 0.2617757492 0.0041782754 0.0005268769 0.3693994899 0.0257825550 0.0052881082 0.2374096814 0.0257025769 0.0146515780 0.3441632191 0.0550054394 0.0088623991 0.3877323749 0.0704981828 0.0108781168 0.3840548642 0.0817888510 0.0226216006 0.3244487109 0.0751365229 0.0093947615 0.1895425027 0.0467815458 0.0006046140 0.1848343967 0.0353177908 0.0002531533 0.2857387407 0.0429204392 0.0224346396 0.4037904284 0.0188084582 0.0164345643 0.4106646681 0.0196953347 0.0154758634 0.2904181818 0.0787408431 0.0127414587 0.0837976919 0.0143960007 0.0282147100 0.1914326960 0.0085798968 0.0054787532 0.1970739246 0.0075075254 0.0155977972 0.1218073684 0.0031860218 0.0001163020 0.0919571851 0.0181642219 0.0003966864 0.0197725783 0.0397383514 0.0186877271 0.3260184034 0.0223899814 0.0002745365 0.4346670843 0.0169476227 0.0014843197 0.4197701499 0.0115079894 0.0078137187 0.4781920843 0.0300371647 0.0010318023 0.3427857683 0.0074527708 0.0039703986 0.3830157847 0.0690887134 0.0119461594 0.3229321664 0.0757717565 0.0003507392 0.4224865608 0.0547840343 0.0170957773 0.4284196891 0.0905933159 0.0014098728 0.3529065776 0.0745244369 0.0081123373 0.2945646769 0.0316129782 0.0225543613 0.2103372859 0.0630217325 0.0265275419 0.2711089068 0.0787700182 0.0232808890 0.2129494500 0.0407239842 0.0257357136 0.0813762637 0.0549799658 0.0267497503 0.4224989993 0.0723900290 0.0188495553 0.1658281647 0.0723649837 0.0013585719 0.1649108415 0.0836187441 0.0057071116 0.1772733588 0.0940064953 0.0054207274 0.1359761599 0.0075607948 0.0089797281 0.1010663353 0.0541037437 0.0150662990 0.2807923039 0.0311381090 0.0000574063 0.3432872442 0.0413619185 0.0003860109 0.1828185259 0.0510848927 0.0042644726 0.1349063191 0.0335042362 0.0161621258 0.4597470050 0.0279189414 0.0009902044 0.2777344003 0.0682141631 0.0042054522 0.2737938283 0.0888568307 0.0162548420 0.3634470630 0.1013841906 0.0053568345 0.2714111585 0.0749267463 0.0105974984 0.1813483777 0.0417782655 0.0087452002 0.4239037978 0.0691958162 0.0068720114 0.2777568517 0.0766187772 0.0198656995 0.0780988235 0.0459765979 0.0303201507 0.1570075061 0.0311459881 0.0238275431 0.0908170622 0.0773909251 0.0170871419 0.2094615353 0.0769553714 0.0279367808 0.1375566476 0.0414020470 0.0047567752 0.1448566812 0.0545149094 0.0055350191 0.1286394195 0.0881187634 0.0002846345 0.1218419717 0.0067184838 0.0146562592 0.1485048021 0.0233636775 0.0045287044 0.2735152980 0.0324309294 0.0004283306 0.3058903031 0.0442476683 0.0045886042 0.2187026807 0.0278559397 0.0002145239 0.1275713040 0.0129047429 0.0046426386 0.2814526887 0.0543771596 0.0039660746 0.2238004639 0.0815859333 0.0139911253 0.4687658530 0.0643829647 0.0159338398 0.2679155497 0.060051
[...]
      <PointData Scalars="smoothLength">
        <DataArray type="Float32" Name="smoothLength" format="ascii">
 0.0065000000 0.0065000000 0.0065000000 0.0065000000 0.0065000000 0.0065000000 0.0065000000 0.0065000000 0.0065000000 0.0065000000 0.0065000000 0.0065000000 0.0065000000 0.0065000000 0.0065000000 0.0065000000 0.0065000000 0.0065000000 0.0065000000 0.0065000000 0.0065000000 0.0065000000 0.0065000000 0.0065000000 0.0065000000 0.0065000000 0.0065000000 0.0065000000 0.0065000000 0.0065000000 0.0065000000 0.0065000000 0.0065000000 0.0065000000 0.0065000000 0.0065000000 0.0065000000 0.0065000000 0.0065000000 0.0065000000 0.0065000000 0.0065000000 0.0065000000 0.0065000000 0.0065000000 0.0065000000 0.0065000000 0.0065000000 0.0065000000 0.0065000000 0.0065000000 0.0065000000 0.0065000000 0.0065000000 0.0065000000 0.0065000000 0.0065000000 0.0065000000 0.0065000000 0.0065000000 0.0065000000 0.0065000000 0.0065000000 0.0065000000 0.0065000000 0.0065000000 0.0065000000 0.0065000000 0.0065000000 0.0065000000 0.0065000000 0.0065000000 0.0065000000 0.0065000000 0.0065000000 0.0065000000 0.0065000000 0.0065000000 0.0065000000 0.0065000000 0.0065000000 0.0065000000 0.0065000000 0.0065000000 0.0065000000 0.0065000000 0.0065000000 0.0065000000 0.0065000000 0.0065000000 0.0065000000 0.0065000000 0.0065000000 0.0065000000 0.0065000000 0.0065000000 0.0065000000 0.0065000000 0.0065000000 0.0065000000 0.0065000000 0.0065000000 0.0065000000 0.0065000000 0.0065000000 0.0065000000 0.0065000000 0.0065000000 0.0065000000 0.0065000000 0.0065000000 0.0065000000 0.0065000000 0.0065000000 0.0065000000 0.0065000000 0.0065000000 0.0065000000 0.0065000000 0.0065000000 0.0065000000 0.0065000000 0.0065000000 0.0065000000 0.0065000000 0.0065000000 0.0065000000 0.0065000000 0.0065000000 0.0065000000 0.0065000000 0.0065000000 0.0065000000 0.0065000000 0.0065000000 0.0065000000 0.0065000000 0.0065000000 0.0065000000 0.0065000000 0.0065000000 0.0065000000 0.0065000000 0.0065000000 0.0065000000 0.0065000000 0.0065000000 0.0065000000 0.0065000000 0.0065000000 0.0065000000 0.0065000000 0.0065000000 0.0065000000 0.0065000000 0.0065000000 0.0065000000 0.0065000000 0.0065000000 0.0065000000 0.0065000000 0.0065000000 0.0065000000 0.0065000000 0.0065000000 0.0065000000 0.0065000000 0.0065000000 0.0065000000 0.0065000000 0.0065000000 0.0065000000 0.0065000000 0.0065000000 0.0065000000 0.0065000000 0.0065000000 0.0065000000 0.0065000000 0.0065000000 0.0065000000 0.0065000000 0.0065000000 0.0065000000 0.0065000000 0.0065000000 0.0065000000 0.0065000000 0.0065000000 0.0065000000 0.0065000000 0.0065000000 0.0065000000 0.0065000000 0.0065000000 0.0065000000 0.0065000000 0.0065000000 0.0065000000 0.0065000000 0.0065000000 0.0065000000 0.0065000000 0.0065000000 0.0065000000 0.0065000000 0.0065000000 0.0065000000 0.0065000000 0.0065000000 0.0065000000 0.0065000000 0.0065000000 0.0065000000 0.0065000000 0.0065000000 0.0065000000 0.0065000000 0.0065000000 0.0065000000 0.0065000000 0.0065000000 0.0065000000 0.0065000000 0.0065000000 0.0065000000 0.0065000000 0.0065000000 0.0065000000 0.0065000000 0.0065000000 0.0065000000 0.0065000000 0.0065000000 0.0065000000 0.0065000000 0.0065000000 0.0065000000 0.0065000000 0.0065000000 0.0065000000 0.0065000000 0.0065000000 0.0065000000 0.0065000000 0.0065000000 0.0065000000 0.0065000000 0.0065000000 0.0065000000 0.0065000000 0.0065000000 0.0065000000 0.0065000000 0.0065000000 0.0065000000 0.0065000000 0.0065000000 0.0065000000 0.0065000000 0.0065000000 0.0065000000 0.0065000000 0.0065000000 0.0065000000 0.0065000000 0.0065000000 0.0065000000 0.0065000000 0.0065000000 0.0065000000 0.0065000000 0.0065000000 0.0065000000 0.0065000000 0.0065000000 0.0065000000 0.0065000000 0.0065000000 0.0065000000 0.0065000000 0.0065000000 0.0065000000 0.0065000000 0.0065000000 0.0065000000 0.0065000000 0.0065000000 0.0065000000 0.0065000000 0.0065000000 0.0065000000 0.0065000000 0.0065000000 0.0065000000 0.0065000000 0.0065000000 0.0065000000 0.0065000000 0.0065000000 0.0065000000 0.0065000000 0.0065000000 0.0065000000 0.0065000000 0.0065000000 0.0065000000 0.0065000000 0.0065000000 0.0065000000 0.0065000000 0.0065000000 0.0065000000 0.0065000000 0.0065000000 0.0065000000 0.0065000000 0.0065000000 0.0065000000 0.0065000000 0.0065000000 0.0065000000 0.0065000000 0.0065000000 0.0065000000 0.0065000000 0.0065000000 0.0065000000 0.0065000000 0.0065000000 0.0065000000 0.0065000000 0.0065000000 0.0065000000 0.0065000000 0.0065000000 0.0065000000 0.0065000000 0.0065000000 0.0065000000 0.0065000000 0.0065000000 0.0065000000 0.0065000000 0.0065000000 0.0065000000 0.0065000000 0.0065000000 0.0065000000 0.0065000000 0.0065000000 0.0065000000 0.0065000000 0.0065000000 0.0065000000 0.0065000000 0.0065000000 0.0065000000 0.0065000000 0.0065000000 0.0065000000 0.0065000000 0.0065000000 0.0065000000 0.0065000000 0.0065000000 0.0065000000 0.0065000000 0.0065000000 0.0065000000 0.0065000000 0.0065000000 0.0065000000 0.0065000000 0.0065000000 0.0065000000 0.0065000000 0.0065000000 0.0065000000 0.0065000000 0.0065000000 0.0065000000 0.0065000000 0.0065000000 0.0065000000 0.0065000000 0.0065000000 0.0065000000 0.0065000000 0.0065000000 0.0065000000 0.0065000000 0.0065000000 0.0065000000 0.0065000000 0.0065000000 0.0065000000 0.0065000000 0.0065000000 0.0065000000 0.0065000000 0.0065000000 0.0065000000 0.0065000000 0.0065000000 0.0065000000 0.0065000000 0.0065000000 0.0065000000 0.0065000000 0.0065000000 0.0065000000 0.0065000000 0.0065000000 0.0065000000 0.0065000000 0.0065000000 0.0065000000 0.0065000000 0.0065000000 0.0065000000 0.0065000000 0.0065000000 0.0065000000 0.0065000000 0.0065000000 0.0065000000 0.0065000000 0.0065000000 0.0065000000 0.0065000000 0.0065000000 0.0065000000 0.0065000000 0.0065000000 0.0065000000 0.0065000000 0.0065000000 0.0065000000 0.0065000000 0.0065000000 0.0065000000 0.0065000000 0.0065000000 0.0065000000 0.0065000000 0.0065000000 0.0065000000 0.0065000000 0.0065000000 0.0065000000 0.0065000000 0.0065000000 0.0065000000 0.0065000000 0.0065000000 0.0065000000 0.0065000000 0.0065000000 0.0065000000 0.0065000000 0.0065000000 0.0065000000 0.0065000000 0.0065000000 0.0065000000 0.0065000000 0.0065000000 0.0065000000 0.0065000000 0.0065000000 0.0065000000 0.0065000000 0.0065000000 0.0065000000 0.0065000000 0.0065000000 0.0065000000 0.0065000000 0.0065000000 0.0065000000 0.0065000000 0.0065000000 0.0065000000 0.0065000000 0.0065000000 0.0065000000 0.0065000000 0.0065000000 0.0065000000 0.0065000000 0.0065000000 0.0065000000 0.0065000000 0.0065000000 0.0065000000 0.0065000000 0.0065000000 0.0065000000 0.0065000000 0.0065000000 0.0065000000 0.0065000000 0.0065000000 0.0065000000 0.0065000000 0.0065000000 0.0065000000 0.0065000000 0.0065000000 0.0065000000 0.0065000000 0.0065000000 0.0065000000 0.0065000000 0.0065000000 0.0065000000 0.0065000000 0.0065000000 0.0065000000 0.0065000000 0.0065000000 0.0065000000 0.0065000000 0.0065000000 0.0065000000 0.0065000000 0.0065000000 0.0065000000 0.0065000000 0.0065000000 0.0065000000 0.0065000000 0.0065000000 0.0065000000 0.0065000000 0.0065000000 0.0065000000 0.0065000000 0.0065000000 0.0065000000 0.0065000000 0.0065000000 0.0065000000 0.0065000000 0.0065000000 0.0065000000 0.0065000000 0.0065000000 0.0065000000 0.0065000000 0.0065000000 0.0065000000 0.0065000000 0.0065000000 0.0065000000 0.0065000000 0.0065000000 0.0065000000 0.0065000000 0.0065000000 0.0065000000 0.0065000000 0.0065000000 0.0065000000 0.0065000000 0.0065000000 0.0065000000 0.0065000000 0.0065000000 0.0065000000 0.0065000000 0.0065000000 0.0065000000 0.0065000000 0.0065000000 0.0065000000 0.0065000000 0.0065000000 0.0065000000 0.0065000000 0.0065000000 0.0065000000 0.0065000000 0.0065000000 0.0065000000 0.0065000000 0.0065000000 0.0065000000 0.0065000000 0.0065000000 0.0065000000 0.0065000000 0.0065000000 0.0065000000 0.0065000000 0.0065000000 0.0065000000 0.0065000000 0.0065000000 0.0065000000 0.0065000000 0.0065000000 0.0065000000 0.0065000000 0.0065000000 0.0065000000 0.0065000000 0.0065000000 0.0065000000 0.0065000000 0.0065000000 0.0065000000 0.0065000000 0.0065000000 0.0065000000 0.0065000000 0.0065000000 0.0065000000 0.0065000000 0.0065000000 0.0065000000 0.0065000000 0.0065000000 0.0065000000 0.0065000000 0.0065000000 0.0065000000 0.0065000000 0.0065000000 0.0065000000 0.0065000000 0.0065000000 0.0065000000 0.0065000000 0.0065000000 0.0065000000 0.0065000000 0.0065000000 0.0065000000 0.0065000000 0.0065000000 0.0065000000 0.0065000000 0.0065000000 0.0065000000 0.0065000000 0.0065000000 0.0065000000 0.0065000000 0.0065000000 0.0065000000 0.0065000000 0.0065000000 0.0065000000 0.0065000000 0.0065000000 0.0065000000 0.0065000000 0.0065000000 0.0065000000 0.0065000000 0.0065000000 0.0065000000 0.0065000000 0.0065000000 0.0065000000 0.0065000000 0.0065000000 0.0065000000 0.0065000000 0.0065000000 0.0065000000 0.0065000000 0.0065000000 0.0065000000 0.0065000000 0.0065000000 0.0065000000 0.0065000000 0.0065000000 0.0065000000 0.0065000000 0.0065000000 0.0065000000 0.0065000000 0.0065000000 0.0065000000 0.0065000000 0.0065000000 0.0065000000 0.0065000000 0.0065000000 0.0065000000 0.0065000000 0.0065000000 0.0065000000 0.0065000000 0.0065000000 0.0065000000 0.0065000000 0.0065000000 0.0065000000 0.0065000000 0.0065000000 0.0065000000 0.0065000000 0.0065000000 0.0065000000 0.0065000000 0.0065000000 0.0065000000 0.0065000000 0.0065000000 0.0065000000 0.0065000000 0.0065000000 0.0065000000 0.0065000000 0.0065000000 0.0065000000 0.0065000000 0.0065000000 0.0065000000 0.0065000000 0.0065000000 0.0065000000 0.0065000000 0.0065000000 0.0065000000 0.0065000000 0.0065000000 0.0065000000 0.0065000000 0.0065000000 0.0065000000 0.0065000000 0.0065000000 0.0065000000 0.0065000000 0.0065000000 0.0065000000 0.0065000000 0.0065000000 0.0065000000 0.0065000000 0.0065000000 0.0065000000 0.0065000000 0.0065000000 0.0065000000 0.0065000000 0.0065000000 0.0065000000 0.0065000000 0.0065000000 0.0065000000 0.0065000000 0.0065000000 0.0065000000 0.0065000000 0.0065000000 0.0065000000 0.0065000000 0.0065000000 0.0065000000 0.0065000000 0.0065000000 0.0065000000 0.0065000000 0.0065000000 0.0065000000 0.0065000000 0.0065000000 0.0065000000 0.0065000000 0.0065000000 0.0065000000 0.0065000000 0.0065000000 0.0065000000 0.0065000000 0.0065000000 0.0065000000 0.0065000000 0.0065000000 0.0065000000 0.0065000000 0.0065000000 0.0065000000 0.0065000000 0.0065000000 0.0065000000 0.0065000000 0.0065000000 0.0065000000 0.0065000000 0.0065000000 0.0065000000 0.0065000000 0.0065000000 0.0065000000 0.0065000000 0.0065000000 0.0065000000 0.0065000000 0.0065000000 0.0065000000 0.0065000000 0.0065000000 0.0065000000 0.0065000000 0.0065000000 0.0065000000 0.0065000000 0.0065000000 0.0065000000 0.0065000000 0.0065000000 0.0065000000 0.0065000000 0.0065000000 0.0065000000 0.0065000000 0.0065000000 0.0065000000 0.0065000000 0.0065000000 0.0065000000 0.0065000000 0.0065000000 0.0065000000 0.0065000000 0.0065000000 0.0065000000 0.0065000000 0.0065000000 0.0065000000 0.0065000000 0.0065000000 0.0065000000 0.0065000000 0.0065000000 0.0065000000 0.0065000000 0.0065000000 0.0065000000 0.0065000000 0.0065000000 0.0065000000 0.0065000000 0.0065000000 0.0065000000 0.0065000000 0.0065000000 0.0065000000 0.0065000000 0.0065000000 0.0065000000 0.0065000000 0.0065000000 0.0065000000 0.0065000000 0.0065000000 0.0065000000 0.0065000000 0.0065000000 0.0065000000 0.0065000000 0.0065000000 0.0065000000 0.0065000000 0.0065000000 0.0065000000 0.0065000000 0.0065000000 0.0065000000 0.0065000000 0.0065000000 0.0065000000 0.0065000000 0.0065000000 0.0065000000 0.0065000000 0.0065000000 0.0065000000 0.0065000000 0.0065000000 0.0065000000 0.0065000000 0.0065000000 0.0065000000 0.0065000000 0.0065000000 0.0065000000 0.0065000000 0.0065000000 0.0065000000 0.0065000000 0.0065000000 0.0065000000 0.0065000000 0.0065000000 0.0065000000 0.0065000000 0.0065000000 0.0065000000 0.0065000000 0.0065000000 0.0065000000 0.0065000000 0.0065000000 0.0065000000 0.0065000000 0.0065000000 0.0065000000 0.0065000000 0.0065000000 0.0065000000 0.0065000000 0.0065000000 0.0065000000 0.0065000000 0.0065000000 0.0065000000 0.0065000000 0.0065000000 0.0065000000 0.0065000000 0.0065000000 0.0065000000 0.0065000000 0.0065000000 0.0065000000 0.0065000000 0.0065000000 0.0065000000 0.0065000000 0.0065000000 0.0065000000 0.0065000000 0.0065000000 0.0065000000 0.0065000000 0.0065000000 0.0065000000 0.0065000000 0.0065000000 0.0065000000 0.0065000000 0.0065000000 0.0065000000 0.0065000000 0.0065000000 0.0065000000 0.0065000000 0.0065000000 0.0065000000 0.0065000000 0.0065000000 0.0065000000 0.0065000000 0.0065000000 0.0065000000 0.0065000000 0.0065000000 0.0065000000 0.0065000000 0.0065000000 0.0065000000 0.0065000000 0.0065000000 0.0065000000 0.0065000000 0.0065000000 0.0065000000 0.0065000000 0.0065000000 0.0065000000 0.0065000000 0.0065000000 0.0065000000 0.0065000000 0.0065000000 0.0065000000 0.0065000000 0.0065000000 0.0065000000 0.0065000000 0.0065000000 0.0065000000 0.0065000000 0.0065000000 0.0065000000 0.0065000000 0.0065000000 0.0065000000 0.0065000000 0.0065000000 0.0065000000 0.0065000000 0.0065000000 0.0065000000 0.0065000000 0.0065000000 0.0065000000 0.0065000000 0.0065000000 0.0065000000 0.0065000000 0.0065000000 0.0065000000 0.0065000000 0.0065000000 0.0065000000 0.0065000000 0.0065000000 0.0065000000 0.0065000000 0.0065000000 0.0065000000 0.0065000000 0.0065000000 0.0065000000 0.0065000000 0.0065000000 0.0065000000 0.0065000000 0.0065000000 0.0065000000 0.0065000000 0.0065000000 0.0065000000 0.0065000000 0.0065000000 0.0065000000 0.0065000000 0.0065000000 0.0065000000 0.0065000000 0.0065000000 0.0065000000 0.0065000000 0.0065000000 0.0065000000 0.0065000000 0.0065000000 0.0065000000 0.0065000000 0.0065000000 0.0065000000 0.0065000000 0.0065000000 0.0065000000 0.0065000000 0.0065000000 0.0065000000 0.0065000000 0.0065000000 0.0065000000 0.0065000000 0.0065000000 0.0065000000 0.0065000000 0.0065000000 0.0065000000 0.0065000000 0.0065000000 0.0065000000 0.0065000000 0.0065000000 0.0065000000 0.0065000000 0.0065000000 0.0065000000 0.0065000000 0.0065000000 0.0065000000 0.0065000000 0.0065000000 0.0065000000 0.0065000000 0.0065000000 0.0065000000 0.0065000000 0.0065000000 0.0065000000 0.0065000000 0.0065000000 0.0065000000 0.0065000000 0.0065000000 0.0065000000 0.0065000000 0.0065000000 0.0065000000 0.0065000000 0.0065000000 0.0065000000 0.0065000000 0.0065000000 0.0065000000 0.0065000000 0.0065000000 0.0065000000 0.0065000000 0.0065000000 0.0065000000 0.0065000000 0.0065000000 0.0065000000 0.0065000000 0.0065000000 0.0065000000 0.0065000000 0.0065000000 0.0065000000 0.0065000000 0.0065000000 0.0065000000 0.0065000000 0.0065000000 0.0065000000 0.0065000000 0.0065000000 0.0065000000 0.0065000000 0.0065000000 0.0065000000 0.0065000000 0.0065000000 0.0065000000 0.0065000000 0.0065000000 0.0065000000 0.0065000000 0.0065000000 0.0065000000 0.0065000000 0.0065000000 0.0065000000 0.0065000000 0.0065000000 0.0065000000 0.0065000000 0.0065000000 0.0065000000 0.0065000000 0.0065000000 0.0065000000 0.0065000000 0.0065000000 0.0065000000 0.0065000000 0.0065000000 0.0065000000 0.0065000000 0.0065000000 0.0065000000 0.0065000000 0.0065000000 0.0065000000 0.0065000000 0.0065000000 0.0065000000 0.0065000000 0.0065000000 0.0065000000 0.0065000000 0.0065000000 0.0065000000 0.0065000000 0.0065000000 0.0065000000 0.0065000000 0.0065000000 0.0065000000 0.0065000000 0.0065000000 0.0065000000 0.0065000000 0.0065000000 0.0065000000 0.0065000000 0.0065000000 0.0065000000 0.0065000000 0.0065000000 0.0065000000 0.0065000000 0.0065000000 0.0065000000 0.0065000000 0.0065000000 0.0065000000 0.0065000000 0.0065000000 0.0065000000 0.0065000000 0.0065000000 0.0065000000 0.0065000000 0.0065000000 0.0065000000 0.0065000000 0.0065000000 0.0065000000 0.0065000000 0.0065000000 0.0065000000 0.0065000000 0.0065000000 0.0065000000 0.0065000000 0.0065000000 0.0065000000 0.0065000000 0.0065000000 0.0065000000 0.0065000000 0.0065000000 0.0065000000 0.0065000000 0.0065000000 0.0065000000 0.0065000000 0.0065000000 0.0065000000 0.0065000000 0.0065000000 0.0065000000 0.0065000000 0.0065000000 0.0065000000 0.0065000000 0.0065000000 0.0065000000 0.0065000000 0.0065000000 0.0065000000 0.0065000000 0.0065000000 0.0065000000 0.0065000000 0.0065000000 0.0065000000 0.0065000000 0.0065000000 0.0065000000 0.0065000000 0.0065000000 0.0065000000 0.0065000000 0.0065000000 0.0065000000 0.0065000000 0.0065000000 0.0065000000 0.0065000000 0.0065000000 0.0065000000 0.0065000000 0.0065000000 0.0065000000 0.0065000000 0.0065000000 0.0065000000 0.0065000000 0.0065000000 0.0065000000 0.0065000000 0.0065000000 0.0065000000 0.0065000000 0.0065000000 0.0065000000 0.0065000000 0.0065000000 0.0065000000 0.0065000000 0.0065000000 0.0065000000 0.0065000000 0.0065000000 0.0065000000 0.0065000000 0.0065000000 0.0065000000 0.0065000000 0.0065000000 0.0065000000 0.0065000000 0.0065000000 0.0065000000 0.0065000000 0.0065000000 0.0065000000 0.0065000000 0.0065000000 0.0065000000 0.0065000000 0.0065000000 0.0065000000 0.0065000000 0.0065000000 0.0065000000 0.0065000000 0.0065000000 0.0065000000 0.0065000000 0.0065000000 0.0065000000 0.0065000000 0.0065000000 0.0065000000 0.0065000000 0.0065000000 0.0065000000 0.0065000000 0.0065000000 0.0065000000 0.0065000000 0.0065000000 0.0065000000 0.0065000000 0.0065000000 0.0065000000 0.0065000000 0.0065000000 0.0065000000 0.0065000000 0.0065000000 0.0065000000 0.0065000000 0.0065000000 0.0065000000 0.0065000000 0.0065000000 0.0065000000 0.0065000000 0.0065000000 0.0065000000 0.0065000000 0.0065000000 0.0065000000 0.0065000000 0.0065000000 0.0065000000 0.0065000000 0.0065000000 0.0065000000 0.0065000000 0.0065000000 0.0065000000 0.0065000000 0.0065000000 0.0065000000 0.0065000000 0.0065000000 0.0065000000 0.0065000000 0.0065000000 0.0065000000 0.0065000000 0.0065000000 0.0065000000 0.0065000000 0.0065000000 0.0065000000 0.0065000000 0.0065000000 0.0065000000 0.0065000000 0.0065000000 0.0065000000 0.0065000000 0.0065000000 0.0065000000 0.0065000000 0.0065000000 0.0065000000 0.0065000000 0.0065000000 0.0065000000 0.0065000000 0.0065000000 0.0065000000 0.0065000000 0.0065000000 0.0065000000 0.0065000000 0.0065000000 0.0065000000 0.0065000000 0.0065000000 0.0065000000 0.0065000000 0.0065000000 0.0065000000 0.0065000000 0.0065000000 0.0065000000 0.0065000000 0.0065000000 0.0065000000 0.0065000000 0.0065000000 0.0065000000 0.0065000000 0.0065000000 0.0065000000 0.0065000000 0.0065000000 0.0065000000 0.0065000000 0.0065000000 0.0065000000 0.0065000000 0.0065000000 0.0065000000 0.0065000000 0.0065000000 0.0065000000 0.0065000000 0.0065000000 0.0065000000 0.0065000000 0.0065000000 0.0065000000 0.0065000000 0.0065000000 0.0065000000 0.0065000000 0.0065000000 0.0065000000 0.0065000000 0.0065000000 0.0065000000 0.0065000000 0.0065000000 0.0065000000 0.0065000000 0.0065000000 0.0065000000 0.0065000000 0.0065000000 0.0065000000 0.0065000000 0.0065000000 0.0065000000 0.0065000000 0.0065000000 0.0065000000 0.0065000000 0.0065000000 0.0065000000 0.0065000000 0.0065000000 0.0065000000 0.0065000000 0.0065000000 0.0065000000 0.0065000000 0.0065000000 0.0065000000 0.0065000000 0.0065000000 0.0065000000 0.0065000000 0.0065000000 0.0065000000 0.0065000000 0.0065000000 0.0065000000 0.0065000000 0.0065000000 0.0065000000 0.0065000000 0.0065000000 0.0065000000 0.0065000000 0.0065000000 0.0065000000 0.0065000000 0.0065000000 0.0065000000 0.0065000000 0.0065000000 0.0065000000 0.0065000000 0.0065000000 0.0065000000 0.0065000000 0.0065000000 0.0065000000 0.0065000000 0.0065000000 0.0065000000 0.0065000000 0.0065000000 0.0065000000 0.0065000000 0.0065000000 0.0065000000 0.0065000000 0.0065000000 0.0065000000 0.0065000000 0.0065000000 0.0065000000 0.0065000000 0.0065000000 0.0065000000 0.0065000000 0.0065000000 0.0065000000 0.0065000000 0.0065000000 0.0065000000 0.0065000000 0.0065000000 0.0065000000 0.0065000000 0.0065000000 0.0065000000 0.0065000000 0.0065000000 0.0065000000 0.0065000000 0.006500000