<?xml version="1.0"?>
<VTKFile type="UnstructuredGrid" version="0.1" byte_order="LittleEndian">
  <UnstructuredGrid>
    <FieldData>
      <DataArray type="Float32" Name="TIME"  NumberOfTuples="1" format="ascii"> 0.5995870296 </DataArray>
      <DataArray type="Int32"   Name="STEP"  NumberOfTuples="1" format="ascii"> 8040 </DataArray>
    </FieldData>
    <Piece NumberOfPoints="18081" NumberOfCells="18081">
      <Points>
        <DataArray type="Float32" NumberOfComponents="3" format="ascii">
 0.0779734606 0.0243571472 0.0037275321 0.0990416215 0.0272262450 0.0000648832 0.1081542222 0.0247949596 -0.0008285891 0.1287101366 0.0240799889 -0.0003754693 0.1504267381 0.0251428709 -0.0004657085 0.1614331491 0.0241458579 -0.0007110020 0.2094971659 0.0185288460 -0.0005736175 0.2420013742 0.0250073504 -0.0002384759 0.2965537438 0.0169446695 -0.0010495653 0.3350717301 0.0187634093 0.0044208399 0.3507484061 0.0185802070 0.0001997622 0.3984383586 0.0182152389 -0.0008486522 0.4277438949 0.0159222751 -0.0006055330 0.4843353559 0.0177464337 -0.0015387985 0.4986238310 0.0201758353 0.0227169054 0.4921636360 0.0154412442 0.0542596694 0.4922705254 0.0128333135 0.0598678727 0.4848188512 0.0153041098 0.0753647033 0.4559213212 0.0010428314 0.0747573148 0.4898977985 -0.0002568817 0.0909919021 0.4890527728 0.0100976579 0.0986359721 0.0781863941 0.0237803295 -0.0002489169 0.0874335008 0.0247234157 0.0002422193 0.1050997628 0.0261576492 0.0034114342 0.1255030801 0.0266898647 0.0045943296 0.1817771885 0.0285282502 0.0034220246 0.2223700989 0.0210333492 -0.0009647972 0.2556775681 0.0286697070 -0.0008474480 0.3016312026 0.0216812200 -0.0010269090 0.3462918727 0.0224338352 -0.0006400187 0.3884897371 0.0203727144 -0.0012246245 0.4194850658 0.0214641463 -0.0002125350 0.4583571090 0.0172149048 -0.0005745502 0.4961026430 0.0218046267 0.0030077438 0.4963015605 0.0191331111 0.0404178004 0.4943154734 0.0183804336 0.0591442982 0.4915399454 0.0163184571 0.0675067414 0.5005595626 0.0115268475 0.0809546727 0.4665123979 0.0071637640 0.0746233633 0.4551991271 0.0061600631 0.0694784464 0.4575055798 0.0117271185 0.0781914374 0.5001531680 0.0399850574 0.1044785448 0.0874364213 0.0296472553 0.0001397733 0.0933213679 0.0301310407 -0.0005243224 0.1037660041 0.0283418326 -0.0006891020 0.1096277524 0.0317607694 -0.0002732235 0.1360925452 0.0281038498 -0.0001152343 0.1931830329 0.0260902024 -0.0002593470 0.2368134483 0.0299363973 -0.0005277152 0.2871464455 0.0224063264 -0.0003439692 0.3205751001 0.0249141539 -0.0009500376 0.3634649421 0.0284003932 -0.0003565030 0.4051726847 0.0227198037 -0.0009402423 0.4399397807 0.0255823037 -0.0002529730 0.4775657387 0.0207587047 0.0006920334 0.4970149410 0.0254042443 0.0251846500 0.4996573929 0.0133639180 0.0019334653 0.4704442532 0.0165457826 0.0669304079 0.4883023117 0.0119006293 0.0731026508 0.4920596215 0.0139342572 0.0826281290 0.5002442448 0.0095898215 0.0968853953 0.5005946783 0.0000993873 0.0987618966 0.4885779463 0.0080087538 0.1014695676 0.0778097398 0.0297528126 -0.0006282415 0.0896298153 0.0340333395 -0.0000859952 0.1113390206 0.0358992448 -0.0004353594 0.1266663814 0.0281473829 -0.0007887753 0.1691948888 0.0281291711 -0.0003540365 0.2122021014 0.0257233419 -0.0002226829 0.2473871183 0.0244500766 -0.0006266400 0.2947082458 0.0234999448 -0.0010467229 0.3323356934 0.0196367862 -0.0008807543 0.3831242201 0.0224867892 -0.0001905871 0.4150529787 0.0260227055 -0.0008727500 0.4659801531 0.0223048291 0.0005242635 0.4931453899 0.0195603531 -0.0002057645 0.4996940634 0.0141388812 0.0173076456 0.4943149732 0.0227747448 0.0618104029 0.4984799244 0.0116278291 0.0707340447 0.4778812541 0.0210271972 0.0732913579 0.4852342626 0.0269743781 0.0806794418 0.4767377825 0.0149594668 0.0789234694 0.4977583486 0.0036843269 0.1023372681 0.4947737037 0.0159737724 0.1019967418 0.0697564235 0.0310571035 -0.0003173745 0.0992909767 0.0329648660 -0.0006237877 0.1243413634 0.0333590289 -0.0006293511 0.1320738028 0.0317572118 -0.0005732661 0.1616692722 0.0315352146 0.0001326438 0.1915510754 0.0306201988 0.0001300647 0.2288817153 0.0301676507 -0.0007615552 0.2866109149 0.0277925251 -0.0006090615 0.3234370488 0.0338439826 0.0002169117 0.3699864363 0.0247100445 0.0002361037 0.4089102449 0.0284368542 -0.0001861423 0.4608687098 0.0271881711 -0.0004342911 0.4895178101 0.0274041990 -0.0003083028 0.4986082529 0.0311319661 0.0223123052 0.4963358396 0.0235694388 0.0517488479 0.4792063580 0.0247845589 0.0664818093 0.4842650055 0.0206528185 0.0757423785 0.4898493947 0.0297144302 0.0839594309 0.5004318441 0.0119696454 0.0836290506 0.4944609892 0.0206215969 0.1029400425 0.5004367119 0.0143996184 0.1026417939 0.0735405009 0.0336561882 0.0001430354 0.0956655637 0.0380938130 -0.0006396702 0.1186891483 0.0356567032 -0.0008806458 0.1301835566 0.0365009242 -0.0005204974 0.1377638490 0.0327270088 -0.0002524662 0.1821249048 0.0368704796 -0.0007663811 0.2326584941 0.0325925631 0.0010159872 0.2859958171 0.0333507303 -0.0008015035 0.3128636020 0.0339351778 -0.0005083080 0.3494104917 0.0293260834 -0.0004471535 0.4011475929 0.0268570789 -0.0008982570 0.4442843875 0.0326397099 0.0003560785 0.4819548961 0.0343990286 0.0023797930 0.4997298254 0.0390338798 0.0107712847 0.5010250736 0.0279053597 0.0388363100 0.4817013326 0.0308791778 0.0701323007 0.4950696894 0.0239589832 0.0705108200 0.4703416757 0.0251189488 0.0756750911 0.4774519569 0.0213973397 0.0810852874 0.4991717610 0.0289694158 0.0957338394 0.4978491036 0.0220110791 0.0975410238 0.0726028759 0.0384788101 -0.0008480320 0.0929137343 0.0427947679 -0.0005772466 0.1243093903 0.0389431837 -0.0008269959 0.1494249050 0.0380520615 -0.0011776585 0.1549264780 0.0414244917 -0.0001994811 0.1959815481 0.0333613350 -0.0009281452 0.2587653962 0.0364133718 -0.0010060565 0.2961926681 0.0352719505 -0.0006584485 0.3335096764 0.0332695774 -0.0011181751 0.3719196568 0.0355802971 -0.0005360811 0.4017232661 0.0377600372 -0.0001634437 0.4621899804 0.0389182617 -0.0001652103 0.4899432379 0.0366513890 0.0018337875 0.5011486416 0.0281339389 0.0110127961 0.4961861150 0.0401991880 0.0489325402 0.4962772256 0.0333943202 0.0678482439 0.4756538829 0.0347395887 0.0718047238 0.4865880539 0.0247557727 0.0835472262 0.4636953352 0.0259184406 0.0795560646 0.4999994086 0.0266167958 0.0996274671 0.4803471581 0.0197869639 0.0944460855 0.0781186017 0.0425300772 0.0000755791 0.0997733414 0.0431722258 -0.0009954471 0.1139289759 0.0408767279 -0.0008998869 0.1350254547 0.0397328187 -0.0008384929 0.1446042838 0.0419459174 -0.0010537402 0.1851995254 0.0475014522 0.0000759989 0.2359623749 0.0353555107 -0.0010435138 0.2820343745 0.0479239878 -0.0007191281 0.3123176422 0.0392069596 -0.0004979853 0.3412527768 0.0402462869 -0.0000838141 0.3923587428 0.0378489341 0.0003308355 0.4481915081 0.0364311374 -0.0000982304 0.4802283598 0.0461554509 0.0003606428 0.4973224570 0.0389159321 0.0277053311 0.5005987136 0.0380538631 0.0300103452 0.4934598133 0.0403963954 0.0685750600 0.4739866612 0.0395121275 0.0721333070 0.4582919629 0.0365456330 0.0760067174 0.5004605871 0.0319748082 0.0907612419 0.4851156309 0.0393042160 0.0900558879 0.4910727557 0.0464439791 0.1009833522 0.0764674499 0.0472747155 -0.0006991701 0.1003177908 0.0494626518 -0.0006158643 0.1301862493 0.0459094724 -0.0006813987 0.1364007594 0.0440840742 0.0007094387 0.1495038308 0.0448683917 0.0000049357 0.1992115289 0.0426370118 -0.0004628698 0.2531606981 0.0415346249 -0.0004889286 0.2918811247 0.0423221441 -0.0006508195 0.3235789953 0.0414873054 -0.0007650185 0.3633813568 0.0479246970 -0.0008084552 0.4066381465 0.0408075376 -0.0011221195 0.4706412729 0.0495189261 -0.0002917434 0.4892700674 0.0476503491 0.0028055146 0.4993346334 0.0429572023 0.0114310755 0.4958647924 0.0470876860 0.0545041599 0.4994974761 0.0451171102 0.0418691429 0.4945504562 0.0486868227 0.0834141886 0.4911825772 0.0320433534 0.0878788765 0.4957426524 0.0472947095 0.0900556204 0.5006362075 0.0553537275 0.1004356657 0.4742871919 0.0243404657 0.0916947891 0.0801906064 0.0513420593 -0.0000819115 0.1064820872 0.0535977687 -0.0010506618 0.1191405866 0.0487002190 -0.0001616589 0.1354822020 0.0496568731 -0.0001189979 0.1401479313 0.0468284178 -0.0004494429 0.2011453691 0.0496135621 -0.0005463278 0.2445781701 0.0478299867 -0.0009925038 0.2738984680 0.0481029806 -0.0007077535 0.3201099549 0.0471591530 -0.0002533419 0.3391305145 0.0441213744 -0.0008142752 0.4024097818 0.0481834355 -0.0005510422 0.4533137179 0.0475958996 -0.0009158414 0.4831994648 0.0494593010 -0.0010999502 0.4917184590 0.0510653221 0.0379040611 0.5011103977 0.0545991970 0.0370966839 0.4996549821 0.0519277257 0.0693051742 0.4867208434 0.0521954996 0.0770015084 0.4930725948 0.0434439673 0.0850618908 0.4943081924 0.0477968493 0.0928245955 0.4653428055 0.0552515082 0.0824860018 0.4796609697 0.0535951197 0.0914110944 0.0846189213 0.0582589291 -0.0007967298 0.1006991458 0.0577697109 -0.0007791342 0.1234243445 0.0515038669 -0.0005184735 0.1359636900 0.0549722306 -0.0003606511 0.1553293227 0.0532546534 -0.0005647729 0.1876213275 0.0523507812 -0.0002240808 0.2565977484 0.0552483588 -0.0009249103 0.2866638672 0.0561063350 -0.0004053945 0.3253727176 0.0535619887 -0.0010305794 0.3650790007 0.0527828479 -0.0003977029 0.4095971874 0.0529164993 -0.0001393768 0.4686559212 0.0580941649 -0.0004938122 0.4848018060 0.0558399997 0.0007839587 0.4999420913 0.0522471703 0.0118463420 0.4895212167 0.0538788791 0.0565288906 0.4996477829 0.0571387038 0.0637495351 0.4918195372 0.0591239438 0.0779945355 0.4621733204 0.0495012470 0.0725780319 0.4941737798 0.0568636689 0.0814214001 0.4679954440 0.0584079664 0.0795365394 0.4872084341 0.0421738320 0.0961859479 0.0803078837 0.0623949371 -0.0004621125 0.1072864002 0.0644223060 -0.0007129437 0.1216362292 0.0561114977 -0.0005693543 0.1306190242 0.0578584529 -0.0003546980 0.1481392912 0.0589129145 -0.0002477556 0.1940546060 0.0570422661 -0.0010672999 0.2484474127 0.0570446416 -0.0010946307 0.2806647021 0.0581169729 -0.0006804227 0.3118336033 0.0566161522 -0.0010345307 0.3466713376 0.
[...]
      <PointData Scalars="smoothLength">
        <DataArray type="Float32" Name="smoothLength" format="ascii">
 0.0065000000 0.0065000000 0.0065000000 0.0065000000 0.0065000000 0.0065000000 0.0065000000 0.0065000000 0.0065000000 0.0065000000 0.0065000000 0.0065000000 0.0065000000 0.0065000000 0.0065000000 0.0065000000 0.0065000000 0.0065000000 0.0065000000 0.0065000000 0.0065000000 0.0065000000 0.0065000000 0.0065000000 0.0065000000 0.0065000000 0.0065000000 0.0065000000 0.0065000000 0.0065000000 0.0065000000 0.0065000000 0.0065000000 0.0065000000 0.0065000000 0.0065000000 0.0065000000 0.0065000000 0.0065000000 0.0065000000 0.0065000000 0.0065000000 0.0065000000 0.0065000000 0.0065000000 0.0065000000 0.0065000000 0.0065000000 0.0065000000 0.0065000000 0.0065000000 0.0065000000 0.0065000000 0.0065000000 0.0065000000 0.0065000000 0.0065000000 0.0065000000 0.0065000000 0.0065000000 0.0065000000 0.0065000000 0.0065000000 0.0065000000 0.0065000000 0.0065000000 0.0065000000 0.0065000000 0.0065000000 0.0065000000 0.0065000000 0.0065000000 0.0065000000 0.0065000000 0.0065000000 0.0065000000 0.0065000000 0.0065000000 0.0065000000 0.0065000000 0.0065000000 0.0065000000 0.0065000000 0.0065000000 0.0065000000 0.0065000000 0.0065000000 0.0065000000 0.0065000000 0.0065000000 0.0065000000 0.0065000000 0.0065000000 0.0065000000 0.0065000000 0.0065000000 0.0065000000 0.0065000000 0.0065000000 0.0065000000 0.0065000000 0.0065000000 0.0065000000 0.0065000000 0.0065000000 0.0065000000 0.0065000000 0.0065000000 0.0065000000 0.0065000000 0.0065000000 0.0065000000 0.0065000000 0.0065000000 0.0065000000 0.0065000000 0.0065000000 0.0065000000 0.0065000000 0.0065000000 0.0065000000 0.0065000000 0.0065000000 0.0065000000 0.0065000000 0.0065000000 0.0065000000 0.0065000000 0.0065000000 0.0065000000 0.0065000000 0.0065000000 0.0065000000 0.0065000000 0.0065000000 0.0065000000 0.0065000000 0.0065000000 0.0065000000 0.0065000000 0.0065000000 0.0065000000 0.0065000000 0.0065000000 0.0065000000 0.0065000000 0.0065000000 0.0065000000 0.0065000000 0.0065000000 0.0065000000 0.0065000000 0.0065000000 0.0065000000 0.0065000000 0.0065000000 0.0065000000 0.0065000000 0.0065000000 0.0065000000 0.0065000000 0.0065000000 0.0065000000 0.0065000000 0.0065000000 0.0065000000 0.0065000000 0.0065000000 0.0065000000 0.0065000000 0.0065000000 0.0065000000 0.0065000000 0.0065000000 0.0065000000 0.0065000000 0.0065000000 0.0065000000 0.0065000000 0.0065000000 0.0065000000 0.0065000000 0.0065000000 0.0065000000 0.0065000000 0.0065000000 0.0065000000 0.0065000000 0.0065000000 0.0065000000 0.0065000000 0.0065000000 0.0065000000 0.0065000000 0.0065000000 0.0065000000 0.0065000000 0.0065000000 0.0065000000 0.0065000000 0.0065000000 0.0065000000 0.0065000000 0.0065000000 0.0065000000 0.0065000000 0.0065000000 0.0065000000 0.0065000000 0.0065000000 0.0065000000 0.0065000000 0.0065000000 0.0065000000 0.0065000000 0.0065000000 0.0065000000 0.0065000000 0.0065000000 0.0065000000 0.0065000000 0.0065000000 0.0065000000 0.0065000000 0.0065000000 0.0065000000 0.0065000000 0.0065000000 0.0065000000 0.0065000000 0.0065000000 0.0065000000 0.0065000000 0.0065000000 0.0065000000 0.0065000000 0.0065000000 0.0065000000 0.0065000000 0.0065000000 0.0065000000 0.0065000000 0.0065000000 0.0065000000 0.0065000000 0.0065000000 0.0065000000 0.0065000000 0.0065000000 0.0065000000 0.0065000000 0.0065000000 0.0065000000 0.0065000000 0.0065000000 0.0065000000 0.0065000000 0.0065000000 0.0065000000 0.0065000000 0.0065000000 0.0065000000 0.0065000000 0.0065000000 0.0065000000 0.0065000000 0.0065000000 0.0065000000 0.0065000000 0.0065000000 0.0065000000 0.0065000000 0.0065000000 0.0065000000 0.0065000000 0.0065000000 0.0065000000 0.0065000000 0.0065000000 0.0065000000 0.0065000000 0.0065000000 0.0065000000 0.0065000000 0.0065000000 0.0065000000 0.0065000000 0.0065000000 0.0065000000 0.0065000000 0.0065000000 0.0065000000 0.0065000000 0.0065000000 0.0065000000 0.0065000000 0.0065000000 0.0065000000 0.0065000000 0.0065000000 0.0065000000 0.0065000000 0.0065000000 0.0065000000 0.0065000000 0.0065000000 0.0065000000 0.0065000000 0.0065000000 0.0065000000 0.0065000000 0.0065000000 0.0065000000 0.0065000000 0.0065000000 0.0065000000 0.0065000000 0.0065000000 0.0065000000 0.0065000000 0.0065000000 0.0065000000 0.0065000000 0.0065000000 0.0065000000 0.0065000000 0.0065000000 0.0065000000 0.0065000000 0.0065000000 0.0065000000 0.0065000000 0.0065000000 0.0065000000 0.0065000000 0.0065000000 0.0065000000 0.0065000000 0.0065000000 0.0065000000 0.0065000000 0.0065000000 0.0065000000 0.0065000000 0.0065000000 0.0065000000 0.0065000000 0.0065000000 0.0065000000 0.0065000000 0.0065000000 0.0065000000 0.0065000000 0.0065000000 0.0065000000 0.0065000000 0.0065000000 0.0065000000 0.0065000000 0.0065000000 0.0065000000 0.0065000000 0.0065000000 0.0065000000 0.0065000000 0.0065000000 0.0065000000 0.0065000000 0.0065000000 0.0065000000 0.0065000000 0.0065000000 0.0065000000 0.0065000000 0.0065000000 0.0065000000 0.0065000000 0.0065000000 0.0065000000 0.0065000000 0.0065000000 0.0065000000 0.0065000000 0.0065000000 0.0065000000 0.0065000000 0.0065000000 0.0065000000 0.0065000000 0.0065000000 0.0065000000 0.0065000000 0.0065000000 0.0065000000 0.0065000000 0.0065000000 0.0065000000 0.0065000000 0.0065000000 0.0065000000 0.0065000000 0.0065000000 0.0065000000 0.0065000000 0.0065000000 0.0065000000 0.0065000000 0.0065000000 0.0065000000 0.0065000000 0.0065000000 0.0065000000 0.0065000000 0.0065000000 0.0065000000 0.0065000000 0.0065000000 0.0065000000 0.0065000000 0.0065000000 0.0065000000 0.0065000000 0.0065000000 0.0065000000 0.0065000000 0.0065000000 0.0065000000 0.0065000000 0.0065000000 0.0065000000 0.0065000000 0.0065000000 0.0065000000 0.0065000000 0.0065000000 0.0065000000 0.0065000000 0.0065000000 0.0065000000 0.0065000000 0.0065000000 0.0065000000 0.0065000000 0.0065000000 0.0065000000 0.0065000000 0.0065000000 0.0065000000 0.0065000000 0.0065000000 0.0065000000 0.0065000000 0.0065000000 0.0065000000 0.0065000000 0.0065000000 0.0065000000 0.0065000000 0.0065000000 0.0065000000 0.0065000000 0.0065000000 0.0065000000 0.0065000000 0.0065000000 0.0065000000 0.0065000000 0.0065000000 0.0065000000 0.0065000000 0.0065000000 0.0065000000 0.0065000000 0.0065000000 0.0065000000 0.0065000000 0.0065000000 0.0065000000 0.0065000000 0.0065000000 0.0065000000 0.0065000000 0.0065000000 0.0065000000 0.0065000000 0.0065000000 0.0065000000 0.0065000000 0.0065000000 0.0065000000 0.0065000000 0.0065000000 0.0065000000 0.0065000000 0.0065000000 0.0065000000 0.0065000000 0.0065000000 0.0065000000 0.0065000000 0.0065000000 0.0065000000 0.0065000000 0.0065000000 0.0065000000 0.0065000000 0.0065000000 0.0065000000 0.0065000000 0.0065000000 0.0065000000 0.0065000000 0.0065000000 0.0065000000 0.0065000000 0.0065000000 0.0065000000 0.0065000000 0.0065000000 0.0065000000 0.0065000000 0.0065000000 0.0065000000 0.0065000000 0.0065000000 0.0065000000 0.0065000000 0.0065000000 0.0065000000 0.0065000000 0.0065000000 0.0065000000 0.0065000000 0.0065000000 0.0065000000 0.0065000000 0.0065000000 0.0065000000 0.0065000000 0.0065000000 0.0065000000 0.0065000000 0.0065000000 0.0065000000 0.0065000000 0.0065000000 0.0065000000 0.0065000000 0.0065000000 0.0065000000 0.0065000000 0.0065000000 0.0065000000 0.0065000000 0.0065000000 0.0065000000 0.0065000000 0.0065000000 0.0065000000 0.0065000000 0.0065000000 0.0065000000 0.0065000000 0.0065000000 0.0065000000 0.0065000000 0.0065000000 0.0065000000 0.0065000000 0.0065000000 0.0065000000 0.0065000000 0.0065000000 0.0065000000 0.0065000000 0.0065000000 0.0065000000 0.0065000000 0.0065000000 0.0065000000 0.0065000000 0.0065000000 0.0065000000 0.0065000000 0.0065000000 0.0065000000 0.0065000000 0.0065000000 0.0065000000 0.0065000000 0.0065000000 0.0065000000 0.0065000000 0.0065000000 0.0065000000 0.0065000000 0.0065000000 0.0065000000 0.0065000000 0.0065000000 0.0065000000 0.0065000000 0.0065000000 0.0065000000 0.0065000000 0.0065000000 0.0065000000 0.0065000000 0.0065000000 0.0065000000 0.0065000000 0.0065000000 0.0065000000 0.0065000000 0.0065000000 0.0065000000 0.0065000000 0.0065000000 0.0065000000 0.0065000000 0.0065000000 0.0065000000 0.0065000000 0.0065000000 0.0065000000 0.0065000000 0.0065000000 0.0065000000 0.0065000000 0.0065000000 0.0065000000 0.0065000000 0.0065000000 0.0065000000 0.0065000000 0.0065000000 0.0065000000 0.0065000000 0.0065000000 0.0065000000 0.0065000000 0.0065000000 0.0065000000 0.0065000000 0.0065000000 0.0065000000 0.0065000000 0.0065000000 0.0065000000 0.0065000000 0.0065000000 0.0065000000 0.0065000000 0.0065000000 0.0065000000 0.0065000000 0.0065000000 0.0065000000 0.0065000000 0.0065000000 0.0065000000 0.0065000000 0.0065000000 0.0065000000 0.0065000000 0.0065000000 0.0065000000 0.0065000000 0.0065000000 0.0065000000 0.0065000000 0.0065000000 0.0065000000 0.0065000000 0.0065000000 0.0065000000 0.0065000000 0.0065000000 0.0065000000 0.0065000000 0.0065000000 0.0065000000 0.0065000000 0.0065000000 0.0065000000 0.0065000000 0.0065000000 0.0065000000 0.0065000000 0.0065000000 0.0065000000 0.0065000000 0.0065000000 0.0065000000 0.0065000000 0.0065000000 0.0065000000 0.0065000000 0.0065000000 0.0065000000 0.0065000000 0.0065000000 0.0065000000 0.0065000000 0.0065000000 0.0065000000 0.0065000000 0.0065000000 0.0065000000 0.0065000000 0.0065000000 0.0065000000 0.0065000000 0.0065000000 0.0065000000 0.0065000000 0.0065000000 0.0065000000 0.0065000000 0.0065000000 0.0065000000 0.0065000000 0.0065000000 0.0065000000 0.0065000000 0.0065000000 0.0065000000 0.0065000000 0.0065000000 0.0065000000 0.0065000000 0.0065000000 0.0065000000 0.0065000000 0.0065000000 0.0065000000 0.0065000000 0.0065000000 0.0065000000 0.0065000000 0.0065000000 0.0065000000 0.0065000000 0.0065000000 0.0065000000 0.0065000000 0.0065000000 0.0065000000 0.0065000000 0.0065000000 0.0065000000 0.0065000000 0.0065000000 0.0065000000 0.0065000000 0.0065000000 0.0065000000 0.0065000000 0.0065000000 0.0065000000 0.0065000000 0.0065000000 0.0065000000 0.0065000000 0.0065000000 0.0065000000 0.0065000000 0.0065000000 0.0065000000 0.0065000000 0.0065000000 0.0065000000 0.0065000000 0.0065000000 0.0065000000 0.0065000000 0.0065000000 0.0065000000 0.0065000000 0.0065000000 0.0065000000 0.0065000000 0.0065000000 0.0065000000 0.0065000000 0.0065000000 0.0065000000 0.0065000000 0.0065000000 0.0065000000 0.0065000000 0.0065000000 0.0065000000 0.0065000000 0.0065000000 0.0065000000 0.0065000000 0.0065000000 0.0065000000 0.0065000000 0.0065000000 0.0065000000 0.0065000000 0.0065000000 0.0065000000 0.0065000000 0.0065000000 0.0065000000 0.0065000000 0.0065000000 0.0065000000 0.0065000000 0.0065000000 0.0065000000 0.0065000000 0.0065000000 0.0065000000 0.0065000000 0.0065000000 0.0065000000 0.0065000000 0.0065000000 0.0065000000 0.0065000000 0.0065000000 0.0065000000 0.0065000000 0.0065000000 0.0065000000 0.0065000000 0.0065000000 0.0065000000 0.0065000000 0.0065000000 0.0065000000 0.0065000000 0.0065000000 0.0065000000 0.0065000000 0.0065000000 0.0065000000 0.0065000000 0.0065000000 0.0065000000 0.0065000000 0.0065000000 0.0065000000 0.0065000000 0.0065000000 0.0065000000 0.0065000000 0.0065000000 0.0065000000 0.0065000000 0.0065000000 0.0065000000 0.0065000000 0.0065000000 0.0065000000 0.0065000000 0.0065000000 0.0065000000 0.0065000000 0.0065000000 0.0065000000 0.0065000000 0.0065000000 0.0065000000 0.0065000000 0.0065000000 0.0065000000 0.0065000000 0.0065000000 0.0065000000 0.0065000000 0.0065000000 0.0065000000 0.0065000000 0.0065000000 0.0065000000 0.0065000000 0.0065000000 0.0065000000 0.0065000000 0.0065000000 0.0065000000 0.0065000000 0.0065000000 0.0065000000 0.0065000000 0.0065000000 0.0065000000 0.0065000000 0.0065000000 0.0065000000 0.0065000000 0.0065000000 0.0065000000 0.0065000000 0.0065000000 0.0065000000 0.0065000000 0.0065000000 0.0065000000 0.0065000000 0.0065000000 0.0065000000 0.0065000000 0.0065000000 0.0065000000 0.0065000000 0.0065000000 0.0065000000 0.0065000000 0.0065000000 0.0065000000 0.0065000000 0.0065000000 0.0065000000 0.0065000000 0.0065000000 0.0065000000 0.0065000000 0.0065000000 0.0065000000 0.0065000000 0.0065000000 0.0065000000 0.0065000000 0.0065000000 0.0065000000 0.0065000000 0.0065000000 0.0065000000 0.0065000000 0.0065000000 0.0065000000 0.0065000000 0.0065000000 0.0065000000 0.0065000000 0.0065000000 0.0065000000 0.0065000000 0.0065000000 0.0065000000 0.0065000000 0.0065000000 0.0065000000 0.0065000000 0.0065000000 0.0065000000 0.0065000000 0.0065000000 0.0065000000 0.0065000000 0.0065000000 0.0065000000 0.0065000000 0.0065000000 0.0065000000 0.0065000000 0.0065000000 0.0065000000 0.0065000000 0.0065000000 0.0065000000 0.0065000000 0.0065000000 0.0065000000 0.0065000000 0.0065000000 0.0065000000 0.0065000000 0.0065000000 0.0065000000 0.0065000000 0.0065000000 0.0065000000 0.0065000000 0.0065000000 0.0065000000 0.0065000000 0.0065000000 0.0065000000 0.0065000000 0.0065000000 0.0065000000 0.0065000000 0.0065000000 0.0065000000 0.0065000000 0.0065000000 0.0065000000 0.0065000000 0.0065000000 0.0065000000 0.0065000000 0.0065000000 0.0065000000 0.0065000000 0.0065000000 0.0065000000 0.0065000000 0.0065000000 0.0065000000 0.0065000000 0.0065000000 0.0065000000 0.0065000000 0.0065000000 0.0065000000 0.0065000000 0.0065000000 0.0065000000 0.0065000000 0.0065000000 0.0065000000 0.0065000000 0.0065000000 0.0065000000 0.0065000000 0.0065000000 0.0065000000 0.0065000000 0.0065000000 0.0065000000 0.0065000000 0.0065000000 0.0065000000 0.0065000000 0.0065000000 0.0065000000 0.0065000000 0.0065000000 0.0065000000 0.0065000000 0.0065000000 0.0065000000 0.0065000000 0.0065000000 0.0065000000 0.0065000000 0.0065000000 0.0065000000 0.0065000000 0.0065000000 0.0065000000 0.0065000000 0.0065000000 0.0065000000 0.0065000000 0.0065000000 0.0065000000 0.0065000000 0.0065000000 0.0065000000 0.0065000000 0.0065000000 0.0065000000 0.0065000000 0.0065000000 0.0065000000 0.0065000000 0.0065000000 0.0065000000 0.0065000000 0.0065000000 0.0065000000 0.0065000000 0.0065000000 0.0065000000 0.0065000000 0.0065000000 0.0065000000 0.0065000000 0.0065000000 0.0065000000 0.0065000000 0.0065000000 0.0065000000 0.0065000000 0.0065000000 0.0065000000 0.0065000000 0.0065000000 0.0065000000 0.0065000000 0.0065000000 0.0065000000 0.0065000000 0.0065000000 0.0065000000 0.0065000000 0.0065000000 0.0065000000 0.0065000000 0.0065000000 0.0065000000 0.0065000000 0.0065000000 0.0065000000 0.0065000000 0.0065000000 0.0065000000 0.0065000000 0.0065000000 0.0065000000 0.0065000000 0.0065000000 0.0065000000 0.0065000000 0.0065000000 0.0065000000 0.0065000000 0.0065000000 0.0065000000 0.0065000000 0.0065000000 0.0065000000 0.0065000000 0.0065000000 0.0065000000 0.0065000000 0.0065000000 0.0065000000 0.0065000000 0.0065000000 0.0065000000 0.0065000000 0.0065000000 0.0065000000 0.0065000000 0.0065000000 0.0065000000 0.0065000000 0.0065000000 0.0065000000 0.0065000000 0.0065000000 0.0065000000 0.0065000000 0.0065000000 0.0065000000 0.0065000000 0.0065000000 0.0065000000 0.0065000000 0.0065000000 0.0065000000 0.0065000000 0.0065000000 0.0065000000 0.0065000000 0.0065000000 0.0065000000 0.0065000000 0.0065000000 0.0065000000 0.0065000000 0.0065000000 0.0065000000 0.0065000000 0.0065000000 0.0065000000 0.0065000000 0.0065000000 0.0065000000 0.0065000000 0.0065000000 0.0065000000 0.0065000000 0.0065000000 0.0065000000 0.0065000000 0.0065000000 0.0065000000 0.0065000000 0.0065000000 0.0065000000 0.0065000000 0.0065000000 0.0065000000 0.0065000000 0.0065000000 0.0065000000 0.0065000000 0.0065000000 0.0065000000 0.0065000000 0.0065000000 0.0065000000 0.0065000000 0.0065000000 0.0065000000 0.0065000000 0.0065000000 0.0065000000 0.0065000000 0.0065000000 0.0065000000 0.0065000000 0.0065000000 0.0065000000 0.0065000000 0.0065000000 0.0065000000 0.0065000000 0.0065000000 0.0065000000 0.0065000000 0.0065000000 0.0065000000 0.0065000000 0.0065000000 0.0065000000 0.0065000000 0.0065000000 0.0065000000 0.0065000000 0.0065000000 0.0065000000 0.0065000000 0.0065000000 0.0065000000 0.0065000000 0.0065000000 0.0065000000 0.0065000000 0.0065000000 0.0065000000 0.0065000000 0.0065000000 0.0065000000 0.0065000000 0.0065000000 0.0065000000 0.0065000000 0.0065000000 0.0065000000 0.0065000000 0.0065000000 0.0065000000 0.0065000000 0.0065000000 0.0065000000 0.0065000000 0.0065000000 0.0065000000 0.0065000000 0.0065000000 0.0065000000 0.0065000000 0.0065000000 0.0065000000 0.0065000000 0.0065000000 0.0065000000 0.0065000000 0.0065000000 0.0065000000 0.0065000000 0.0065000000 0.0065000000 0.0065000000 0.0065000000 0.0065000000 0.0065000000 0.0065000000 0.0065000000 0.0065000000 0.0065000000 0.0065000000 0.0065000000 0.0065000000 0.0065000000 0.0065000000 0.0065000000 0.0065000000 0.0065000000 0.0065000000 0.0065000000 0.0065000000 0.0065000000 0.0065000000 0.0065000000 0.0065000000 0.0065000000 0.0065000000 0.0065000000 0.0065000000 0.0065000000 0.0065000000 0.0065000000 0.0065000000 0.0065000000 0.0065000000 0.0065000000 0.0065000000 0.0065000000 0.0065000000 0.0065000000 0.0065000000 0.0065000000 0.0065000000 0.0065000000 0.0065000000 0.0065000000 0.0065000000 0.0065000000 0.0065000000 0.0065000000 0.0065000000 0.0065000000 0.0065000000 0.0065000000 0.0065000000 0.0065000000 0.0065000000 0.0065000000 0.0065000000 0.0065000000 0.0065000000 0.0065000000 0.0065000000 0.0065000000 0.0065000000 0.0065000000 0.0065000000 0.0065000000 0.0065000000 0.0065000000 0.0065000000 0.0065000000 0.0065000000 0.0065000000 0.0065000000 0.0065000000 0.0065000000 0.0065000000 0.0065000000 0.0065000000 0.0065000000 0.0065000000 0.0065000000 0.0065000000 0.0065000000 0.0065000000 0.0065000000 0.0065000000 0.0065000000 0.0065000000 0.0065000000 0.0065000000 0.0065000000 0.0065000000 0.0065000000 0.0065000000 0.0065000000 0.0065000000 0.0065000000 0.0065000000 0.0065000000 0.0065000000 0.0065000000 0.0065000000 0.0065000000 0.0065000000 0.0065000000 0.0065000000 0.0065000000 0.0065000000 0.0065000000 0.0065000000 0.0065000000 0.0065000000 0.0065000000 0.0065000000 0.0065000000 0.0065000000 0.0065000000 0.0065000000 0.0065000000 0.0065000000 0.0065000000 0.0065000000 0.0065000000 0.0065000000 0.0065000000 0.0065000000 0.0065000000 0.0065000000 0.0065000000 0.0065000000 0.0065000000 0.0065000000 0.0065000000 0.0065000000 0.0065000000 0.0065000000 0.0065000000 0.0065000000 0.0065000000 0.0065000000 0.0065000000 0.0065000000 0.0065000000 0.0065000000 0.0065000000 0.0065000000 0.0065000000 0.0065000000 0.0065000000 0.0065000000 0.0065000000 0.0065000000 0.0065000000 0.0065000000 0.0065000000 0.0065000000 0.0065000000 0.0065000000 0.0065000000 0.0065000000 0.0065000000 0.0065000000 0.0065000000 0.0065000000 0.0065000000 0.0065000000 0.0065000000 0.0065000000 0.0065000000 0.0065000000 0.0065000000 0.0065000000 0.0065000000 0.0065000000 0.0065000000 0.0065000000 0.0065000000 0.0065000000 0.0065000000 0.0065000000 0.0065000000 0.0065000000 0.0065000000 0.0065000000 0.0065000000 0.0065000000 0.0065000000 0.0065000000 0.0065000000 0.0065000000 0.0065000000 0.0065000000 0.0065000000 0.0065000000 0.0065000000 0.0065000000 0.0065000000 0.0065000000 0.0065000000 0.0065000000 0.0065000000 0.0065000000 0.0065000000 0.0065000000 0.0065000000 0.0065000000 0.0065000000 0.0065000000 0.0065000000 0.0065000000 0.0065000000 0.0065000000 0.0065000000 0.0065000000 0.0065000000 0.0065000000 0.0065000000 0.0065000000 0.0065000000 0.0065000000 0.0065000000 0.0065000000 0.0065000000 0.0065000000 0.0065000000 0.0065000000 0.0065000000 0.0065000000 0.0065000000 0.0065000000 0.0065000000 0.0065000000 0.0065000000 0.0065000000 0.0065000000 0.0065000000 0.0065000000 0.0065000000 0.0065000000 0.0065000000 0.0065000000 0.0065000000 0.0065000000 0.0065000000 0.0065000000 0.0065000000 0.0065000000 0.0065000000 0.0065000000 0.0065000000 0.0065000000 0.0065000000 0.0065000000 0.0065000000 0.0065000000 0.0065000000 0.0065000000 0.0065000000 0.0065000000 0.0065000000 0.0065000000 0.0065000000 0.0065000000 0.0065000000 0.0065000000 0.006500000