<?xml version="1.0"?>
<VTKFile type="UnstructuredGrid" version="0.1" byte_order="LittleEndian">
  <UnstructuredGrid>
    <FieldData>
      <DataArray type="Float32" Name="TIME"  NumberOfTuples="1" format="ascii"> 2.2484513611 </DataArray>
      <DataArray type="Int32"   Name="STEP"  NumberOfTuples="1" format="ascii"> 30150 </DataArray>
    </FieldData>
    <Piece NumberOfPoints="18081" NumberOfCells="18081">
      <Points>
        <DataArray type="Float32" NumberOfComponents="3" format="ascii">
 0.0429767913 0.0917561599 0.0062364490 0.0021180272 0.0730168461 -0.0001189981 0.0899412939 0.0717292496 0.0059012322 0.1184662501 0.0083936087 0.0083767959 0.1090049246 0.0467132409 0.0053635918 0.0272405608 -0.0000908650 0.0130276586 0.4622640230 0.0143167549 0.0287796757 0.4169972055 0.0236816032 0.0078315518 0.4579407750 0.0000739529 0.0096245492 0.4360039603 0.0217137511 0.0102763793 0.4720857561 0.0213301662 0.0205887535 0.4919513857 0.0079352015 0.0104724199 0.4902294685 0.0083322926 0.0203406854 0.4150679845 0.0358918458 0.0196873542 0.4872884088 0.0559531052 0.0280689165 0.4744117811 0.0186962912 0.0405223849 0.4988126410 0.0085227236 0.0102415010 0.4271774433 0.0895554381 0.0267657040 0.4672842745 0.0179315926 0.0427331693 0.2010679101 0.0081108785 0.0129634095 0.4930660640 0.0032704056 0.0386053688 0.0674664310 0.0986530406 0.0013052733 0.0169852275 0.0331817204 0.0128889508 0.0765496105 0.0463513547 0.0032358762 0.0844651331 0.0485583235 0.0003963329 0.0466652176 0.0106424533 0.0057967673 0.3750282217 0.0014747855 0.0056152133 0.4643921681 0.0008634098 0.0172572073 0.4181702424 0.0129833716 0.0003556931 0.4907896914 0.0184992017 0.0276971244 0.4545416176 0.0030304211 0.0114710204 0.4442895657 0.0620688390 0.0193893306 0.4986055516 0.0154421180 0.0257540382 0.4499478895 0.0593462370 0.0141387235 0.4861883755 0.0046014175 0.0137960898 0.4225367897 0.0396571884 0.0203303414 0.4692033548 0.0247653032 0.0174748151 0.4601542604 0.0278331518 0.0430204743 0.0737367416 0.0347666380 0.0136350728 0.0347093885 0.0085771031 0.0152756984 0.3645976870 0.0282820418 0.0136806726 0.4502903164 0.0944449233 0.0344179569 0.1392612615 0.0367904971 0.0145123123 0.0004309232 0.0621240160 0.0003026758 0.0661053728 0.0740346527 0.0002074308 0.2053079744 0.0794012503 0.0174569440 0.3467608096 0.0008584456 0.0141242611 0.4324005725 0.0288908525 0.0099606318 0.4528210506 0.0011146675 0.0003243756 0.4991047008 0.0445624199 0.0054955402 0.4994676173 0.0617772321 0.0097546489 0.4394563185 0.0029905626 0.0074645072 0.4467299999 0.0535931451 0.0418932028 0.4059684708 0.0519439778 0.0054245540 0.4860800846 0.0598270367 0.0317224360 0.4792790318 0.0590759448 0.0091337655 0.3683688050 0.0172771122 0.0027694761 0.4083391365 0.0202019476 0.0003127601 0.4717512822 0.0243035908 0.0345943123 0.0197368156 0.0543876814 0.0100332616 0.4682633572 0.0691905304 0.0379097673 0.4977907603 0.0453177658 0.0105205407 0.4525341755 0.0631352472 0.0182375769 0.0803329602 0.0567928632 0.0004920977 0.1151181399 0.0208694441 0.0128744456 0.0625074396 0.0712350037 0.0013625613 0.0911000543 0.0443475710 0.0097136652 0.3659116245 0.0150392561 0.0119701017 0.4066715508 0.0066742475 0.0063573379 0.4023225677 0.0008432614 0.0076464540 0.3424400514 0.0308779921 0.0148661340 0.2717820914 0.0020133742 0.0167810980 0.4834409773 0.0139467053 0.0001397016 0.4325166753 0.0724092680 0.0110275036 0.4005722302 0.0576057234 0.0120943831 0.4633666937 0.0205263469 0.0188074561 0.3468144652 0.0093291964 0.0078146982 0.3126893793 0.0534946447 0.0113207744 0.4496609920 0.0372114421 0.0341678864 0.2709906055 0.0153022670 0.0171946303 0.0180760096 0.0611046847 0.0079766308 0.0288323629 0.0978127573 0.0061685067 0.0494194301 0.0305620543 0.0179518107 0.4697057041 0.0913142879 0.0055025324 0.1701458474 0.0344088730 0.0062774554 0.1910183400 0.0207324117 0.0047299898 0.0409569277 0.0361071501 0.0000041487 0.2605926284 -0.0002599001 0.0085862381 0.3248700590 0.0090296819 0.0001214512 0.3976906810 0.0032934223 0.0101590136 0.4657459674 0.0328241119 -0.0001135017 0.4025070540 0.0080991491 0.0098482782 0.3636117333 0.0120448043 0.0084165965 0.3789176926 0.0344267176 0.0086123355 0.4749038832 0.0719350665 0.0045028103 0.4210969398 0.0802979952 0.0173754901 0.4021106831 0.0480800664 0.0143473533 0.3950852323 0.0417133559 0.0056725643 0.3012792559 0.0498502488 0.0148485982 0.4568787568 0.0569121631 0.0369326645 0.4737353461 0.0090584780 0.0361090851 0.4482402777 0.0315167273 0.0339009453 0.4091831053 0.0825587863 0.0249256819 0.4202224009 0.0160733028 0.0233018815 0.4460717988 0.0595118291 0.0350265095 0.1610125000 0.0252593783 0.0098454631 0.0883928358 0.0514454342 0.0007454502 0.0690260759 0.0637736041 0.0015549410 0.0072494145 0.0274604855 0.0037144612 0.3950963217 0.0160214210 0.0139907505 0.4566164873 0.0080660175 0.0000460373 0.3552781904 0.0381993982 0.0072147306 0.4033146828 0.0322419031 0.0201009228 0.3029571432 0.0637210155 0.0175054166 0.3540773723 0.0201490894 0.0017738456 0.4299831155 0.0320977077 0.0069216326 0.3932856269 0.0551678649 0.0086008671 0.4279864855 0.0549761646 0.0141376502 0.4606872506 0.0932860886 0.0417269986 0.4525710372 0.0462728893 0.0195688847 0.4278665085 0.0578318624 0.0219074377 0.2503685935 0.0111975015 0.0164703434 0.0847489487 0.0811324738 0.0083752258 0.2750139600 0.0061684109 0.0109475482 0.4565722542 0.0022424699 0.0337732881 0.4905038474 0.0570360289 0.0058036559 0.1722228972 0.0338280159 0.0001597863 0.2018834764 0.0140282706 0.0071230288 0.0755014122 0.0430641845 -0.0001872605 0.3281890482 0.0109219806 0.0052348549 0.3504996569 0.0156624743 0.0085040962 0.3602345257 0.0003208904 -0.0002120494 0.3197541503 0.0204521006 0.0017230188 0.4133283958 0.0149879985 0.0004223683 0.3117819784 0.0148048780 0.0082536898 0.3233119894 0.0187550901 -0.0001067606 0.3753321753 0.0505647469 0.0024430337 0.4260869509 0.0326861389 0.0027097788 0.3520360507 0.0662096273 0.0144099028 0.4444917946 0.0623992320 0.0009151425 0.2777332455 0.0383874080 0.0001900174 0.4610567527 0.0689594130 0.0284723731 0.0111646979 0.0369169647 0.0048575127 0.1203424861 0.0503052279 0.0138895085 0.0885477464 0.0350810923 0.0118730887 0.0056694120 0.0761105136 0.0123000161 0.4495089177 0.0961931117 0.0424536366 0.1541241761 0.0269131537 0.0149442355 0.1239007965 0.0331278577 0.0053018022 0.1452291202 0.0231623999 -0.0001923048 0.3108433511 -0.0007467502 0.0012066244 0.3366186911 0.0158457752 0.0129434037 0.3429069450 -0.0010090035 0.0073614675 0.3496247248 0.0185298550 -0.0002747922 0.2655514791 0.0501868249 0.0179937370 0.3764501668 0.0238355665 0.0016934734 0.3354940759 0.0272219886 0.0083741524 0.3990146496 0.0647643117 0.0002465918 0.4628206198 0.0630753297 0.0202673907 0.3151181417 0.0648977270 0.0091736825 0.4234980938 0.0478386795 0.0220780028 0.3544965159 0.0552713773 0.0111680196 0.2688983759 0.0442669377 0.0177425765 0.2641968863 0.0640899568 0.0183637790 0.0307934271 0.0544973540 0.0093973884 0.2533874461 0.0346394573 0.0124567826 0.2539498900 0.0426062229 0.0190000549 0.0678205816 0.0414733476 0.0158754918 0.1201270969 0.0241105781 0.0110852288 0.2009791757 0.0456182027 0.0085849715 0.1515979601 0.0256667977 0.0001148896 0.3048357981 0.0012450889 0.0075311012 0.3850434827 0.0027381799 0.0054977671 0.3792179816 0.0024546203 0.0081026514 0.3417413483 0.0084388561 0.0028208710 0.2901626960 0.0294879924 0.0040432915 0.0934044169 0.0122426566 0.0053133375 0.0104016834 0.0308844177 -0.0003849285 0.4012130518 0.0531090215 0.0079707362 0.3983482365 0.0597432809 0.0011558522 0.3558422253 0.0597228879 -0.0004741774 0.4319632439 0.0583288090 0.0078363421 0.4599132610 0.0631989518 0.0254716784 0.4482214655 0.0887682258 0.0191405273 0.4747127375 0.0939417499 0.0345041472 0.0275100556 0.0254840907 0.0041593454 0.0870561365 0.0289234138 0.0115546025 0.4600626544 0.0256687532 0.0165606343 0.0710998486 0.0465201693 0.0129238643 0.1782829095 0.0386605799 0.0118409545 0.1683461134 0.0530033991 0.0065764326 0.1875880399 0.0448035720 -0.0001687556 0.2972366551 0.0013965149 -0.0004403604 0.3679845385 0.0256378056 0.0090612193 0.3289851067 -0.0000478134 0.0009554058 0.3512670337 0.0121034665 0.0055809484 0.3426903926 0.0270521888 -0.0002676620 0.3569985311 0.0213778563 0.0078337995 0.2470935629 0.0197112523 0.0001057327 0.3953806773 0.0432995773 0.0002288157 0.4747185353 0.0510448795 0.0188244174 0.4319427757 0.0437559413 0.0117961283 0.3953240613 0.0171434391 0.0074093625 0.3641275302 0.0832262645 0.0200934989 0.2227729874 0.0157354462 0.0000448609 0.4122412272 0.0725902694 0.0234745078 0.2920409981 0.0891118308 0.0195280305 0.4325991509 0.0647895728 0.0174105807 0.0624349129 0.0105878633 0.0165135890 0.4670971110 0.0681625658 0.0158517877 0.1777283006 0.0350193576 0.0001991978 0.1382036935 0.0424039542 -0.0001776135 0.0916778233 0.0377217977 0.0000127388 0.3110327552 0.0245334986 0.0050734285 0.2888821176 0.0385371116 0.0106554063 0.3806994836 0.0041195269 0.0140930297 0.3164608508 0.0270207733 0.0019372713 0.3999081985 0.0542910223 -0.0002962798 0.0617751139 0.0490545000 0.0093072011 0.3065903845 0.0016486188 -0.0003355720 0.4528441656 0.0620503428 0.0004729195 0.4890690633 0.0878524850 0.0031797659 0.3123415622 0.0721819620 0.0030359971 0.4796228718 0.0642325194 0.0089864150 0.4005730264 0.0645354604 0.0168628501 0.2296377203 0.0677339368 0.0142805204 0.2355742431 0.0684496752 0.0166576427 0.1067035983 0.0248401022 0.0000964956 0.2528137232 0.0716887398 0.0094368223 0.4558143481 0.1117722047 0.0450959408 0.4647173317 0.0749709992 0.0115848550 0.1723259953 0.0377926730 0.0091328949 0.1650492623 0.0630985454 0.0093266366 0.1935545110 0.0198273777 0.0000382090 0.2862065177 -0.0004033864 0.0122437792 0.0567261782 0.0324259182 0.0046105525 0.3077831114 0.0347069488 0.0033973608 0.3333267597 0.0143716665 0.0034116210 0.2922794071 0.0348025875 0.0084814950 0.4271201729 0.0248020481 0.0007228174 0.3161551128 0.0506977770 0.0062624803 0.4734461140 0.0443321597 0.0199761453 0.4561039440 0.0848528904 0.0174928709 0
[...]
      <PointData Scalars="smoothLength">
        <DataArray type="Float32" Name="smoothLength" format="ascii">
 0.0065000000 0.0065000000 0.0065000000 0.0065000000 0.0065000000 0.0065000000 0.0065000000 0.0065000000 0.0065000000 0.0065000000 0.0065000000 0.0065000000 0.0065000000 0.0065000000 0.0065000000 0.0065000000 0.0065000000 0.0065000000 0.0065000000 0.0065000000 0.0065000000 0.0065000000 0.0065000000 0.0065000000 0.0065000000 0.0065000000 0.0065000000 0.0065000000 0.0065000000 0.0065000000 0.0065000000 0.0065000000 0.0065000000 0.0065000000 0.0065000000 0.0065000000 0.0065000000 0.0065000000 0.0065000000 0.0065000000 0.0065000000 0.0065000000 0.0065000000 0.0065000000 0.0065000000 0.0065000000 0.0065000000 0.0065000000 0.0065000000 0.0065000000 0.0065000000 0.0065000000 0.0065000000 0.0065000000 0.0065000000 0.0065000000 0.0065000000 0.0065000000 0.0065000000 0.0065000000 0.0065000000 0.0065000000 0.0065000000 0.0065000000 0.0065000000 0.0065000000 0.0065000000 0.0065000000 0.0065000000 0.0065000000 0.0065000000 0.0065000000 0.0065000000 0.0065000000 0.0065000000 0.0065000000 0.0065000000 0.0065000000 0.0065000000 0.0065000000 0.0065000000 0.0065000000 0.0065000000 0.0065000000 0.0065000000 0.0065000000 0.0065000000 0.0065000000 0.0065000000 0.0065000000 0.0065000000 0.0065000000 0.0065000000 0.0065000000 0.0065000000 0.0065000000 0.0065000000 0.0065000000 0.0065000000 0.0065000000 0.0065000000 0.0065000000 0.0065000000 0.0065000000 0.0065000000 0.0065000000 0.0065000000 0.0065000000 0.0065000000 0.0065000000 0.0065000000 0.0065000000 0.0065000000 0.0065000000 0.0065000000 0.0065000000 0.0065000000 0.0065000000 0.0065000000 0.0065000000 0.0065000000 0.0065000000 0.0065000000 0.0065000000 0.0065000000 0.0065000000 0.0065000000 0.0065000000 0.0065000000 0.0065000000 0.0065000000 0.0065000000 0.0065000000 0.0065000000 0.0065000000 0.0065000000 0.0065000000 0.0065000000 0.0065000000 0.0065000000 0.0065000000 0.0065000000 0.0065000000 0.0065000000 0.0065000000 0.0065000000 0.0065000000 0.0065000000 0.0065000000 0.0065000000 0.0065000000 0.0065000000 0.0065000000 0.0065000000 0.0065000000 0.0065000000 0.0065000000 0.0065000000 0.0065000000 0.0065000000 0.0065000000 0.0065000000 0.0065000000 0.0065000000 0.0065000000 0.0065000000 0.0065000000 0.0065000000 0.0065000000 0.0065000000 0.0065000000 0.0065000000 0.0065000000 0.0065000000 0.0065000000 0.0065000000 0.0065000000 0.0065000000 0.0065000000 0.0065000000 0.0065000000 0.0065000000 0.0065000000 0.0065000000 0.0065000000 0.0065000000 0.0065000000 0.0065000000 0.0065000000 0.0065000000 0.0065000000 0.0065000000 0.0065000000 0.0065000000 0.0065000000 0.0065000000 0.0065000000 0.0065000000 0.0065000000 0.0065000000 0.0065000000 0.0065000000 0.0065000000 0.0065000000 0.0065000000 0.0065000000 0.0065000000 0.0065000000 0.0065000000 0.0065000000 0.0065000000 0.0065000000 0.0065000000 0.0065000000 0.0065000000 0.0065000000 0.0065000000 0.0065000000 0.0065000000 0.0065000000 0.0065000000 0.0065000000 0.0065000000 0.0065000000 0.0065000000 0.0065000000 0.0065000000 0.0065000000 0.0065000000 0.0065000000 0.0065000000 0.0065000000 0.0065000000 0.0065000000 0.0065000000 0.0065000000 0.0065000000 0.0065000000 0.0065000000 0.0065000000 0.0065000000 0.0065000000 0.0065000000 0.0065000000 0.0065000000 0.0065000000 0.0065000000 0.0065000000 0.0065000000 0.0065000000 0.0065000000 0.0065000000 0.0065000000 0.0065000000 0.0065000000 0.0065000000 0.0065000000 0.0065000000 0.0065000000 0.0065000000 0.0065000000 0.0065000000 0.0065000000 0.0065000000 0.0065000000 0.0065000000 0.0065000000 0.0065000000 0.0065000000 0.0065000000 0.0065000000 0.0065000000 0.0065000000 0.0065000000 0.0065000000 0.0065000000 0.0065000000 0.0065000000 0.0065000000 0.0065000000 0.0065000000 0.0065000000 0.0065000000 0.0065000000 0.0065000000 0.0065000000 0.0065000000 0.0065000000 0.0065000000 0.0065000000 0.0065000000 0.0065000000 0.0065000000 0.0065000000 0.0065000000 0.0065000000 0.0065000000 0.0065000000 0.0065000000 0.0065000000 0.0065000000 0.0065000000 0.0065000000 0.0065000000 0.0065000000 0.0065000000 0.0065000000 0.0065000000 0.0065000000 0.0065000000 0.0065000000 0.0065000000 0.0065000000 0.0065000000 0.0065000000 0.0065000000 0.0065000000 0.0065000000 0.0065000000 0.0065000000 0.0065000000 0.0065000000 0.0065000000 0.0065000000 0.0065000000 0.0065000000 0.0065000000 0.0065000000 0.0065000000 0.0065000000 0.0065000000 0.0065000000 0.0065000000 0.0065000000 0.0065000000 0.0065000000 0.0065000000 0.0065000000 0.0065000000 0.0065000000 0.0065000000 0.0065000000 0.0065000000 0.0065000000 0.0065000000 0.0065000000 0.0065000000 0.0065000000 0.0065000000 0.0065000000 0.0065000000 0.0065000000 0.0065000000 0.0065000000 0.0065000000 0.0065000000 0.0065000000 0.0065000000 0.0065000000 0.0065000000 0.0065000000 0.0065000000 0.0065000000 0.0065000000 0.0065000000 0.0065000000 0.0065000000 0.0065000000 0.0065000000 0.0065000000 0.0065000000 0.0065000000 0.0065000000 0.0065000000 0.0065000000 0.0065000000 0.0065000000 0.0065000000 0.0065000000 0.0065000000 0.0065000000 0.0065000000 0.0065000000 0.0065000000 0.0065000000 0.0065000000 0.0065000000 0.0065000000 0.0065000000 0.0065000000 0.0065000000 0.0065000000 0.0065000000 0.0065000000 0.0065000000 0.0065000000 0.0065000000 0.0065000000 0.0065000000 0.0065000000 0.0065000000 0.0065000000 0.0065000000 0.0065000000 0.0065000000 0.0065000000 0.0065000000 0.0065000000 0.0065000000 0.0065000000 0.0065000000 0.0065000000 0.0065000000 0.0065000000 0.0065000000 0.0065000000 0.0065000000 0.0065000000 0.0065000000 0.0065000000 0.0065000000 0.0065000000 0.0065000000 0.0065000000 0.0065000000 0.0065000000 0.0065000000 0.0065000000 0.0065000000 0.0065000000 0.0065000000 0.0065000000 0.0065000000 0.0065000000 0.0065000000 0.0065000000 0.0065000000 0.0065000000 0.0065000000 0.0065000000 0.0065000000 0.0065000000 0.0065000000 0.0065000000 0.0065000000 0.0065000000 0.0065000000 0.0065000000 0.0065000000 0.0065000000 0.0065000000 0.0065000000 0.0065000000 0.0065000000 0.0065000000 0.0065000000 0.0065000000 0.0065000000 0.0065000000 0.0065000000 0.0065000000 0.0065000000 0.0065000000 0.0065000000 0.0065000000 0.0065000000 0.0065000000 0.0065000000 0.0065000000 0.0065000000 0.0065000000 0.0065000000 0.0065000000 0.0065000000 0.0065000000 0.0065000000 0.0065000000 0.0065000000 0.0065000000 0.0065000000 0.0065000000 0.0065000000 0.0065000000 0.0065000000 0.0065000000 0.0065000000 0.0065000000 0.0065000000 0.0065000000 0.0065000000 0.0065000000 0.0065000000 0.0065000000 0.0065000000 0.0065000000 0.0065000000 0.0065000000 0.0065000000 0.0065000000 0.0065000000 0.0065000000 0.0065000000 0.0065000000 0.0065000000 0.0065000000 0.0065000000 0.0065000000 0.0065000000 0.0065000000 0.0065000000 0.0065000000 0.0065000000 0.0065000000 0.0065000000 0.0065000000 0.0065000000 0.0065000000 0.0065000000 0.0065000000 0.0065000000 0.0065000000 0.0065000000 0.0065000000 0.0065000000 0.0065000000 0.0065000000 0.0065000000 0.0065000000 0.0065000000 0.0065000000 0.0065000000 0.0065000000 0.0065000000 0.0065000000 0.0065000000 0.0065000000 0.0065000000 0.0065000000 0.0065000000 0.0065000000 0.0065000000 0.0065000000 0.0065000000 0.0065000000 0.0065000000 0.0065000000 0.0065000000 0.0065000000 0.0065000000 0.0065000000 0.0065000000 0.0065000000 0.0065000000 0.0065000000 0.0065000000 0.0065000000 0.0065000000 0.0065000000 0.0065000000 0.0065000000 0.0065000000 0.0065000000 0.0065000000 0.0065000000 0.0065000000 0.0065000000 0.0065000000 0.0065000000 0.0065000000 0.0065000000 0.0065000000 0.0065000000 0.0065000000 0.0065000000 0.0065000000 0.0065000000 0.0065000000 0.0065000000 0.0065000000 0.0065000000 0.0065000000 0.0065000000 0.0065000000 0.0065000000 0.0065000000 0.0065000000 0.0065000000 0.0065000000 0.0065000000 0.0065000000 0.0065000000 0.0065000000 0.0065000000 0.0065000000 0.0065000000 0.0065000000 0.0065000000 0.0065000000 0.0065000000 0.0065000000 0.0065000000 0.0065000000 0.0065000000 0.0065000000 0.0065000000 0.0065000000 0.0065000000 0.0065000000 0.0065000000 0.0065000000 0.0065000000 0.0065000000 0.0065000000 0.0065000000 0.0065000000 0.0065000000 0.0065000000 0.0065000000 0.0065000000 0.0065000000 0.0065000000 0.0065000000 0.0065000000 0.0065000000 0.0065000000 0.0065000000 0.0065000000 0.0065000000 0.0065000000 0.0065000000 0.0065000000 0.0065000000 0.0065000000 0.0065000000 0.0065000000 0.0065000000 0.0065000000 0.0065000000 0.0065000000 0.0065000000 0.0065000000 0.0065000000 0.0065000000 0.0065000000 0.0065000000 0.0065000000 0.0065000000 0.0065000000 0.0065000000 0.0065000000 0.0065000000 0.0065000000 0.0065000000 0.0065000000 0.0065000000 0.0065000000 0.0065000000 0.0065000000 0.0065000000 0.0065000000 0.0065000000 0.0065000000 0.0065000000 0.0065000000 0.0065000000 0.0065000000 0.0065000000 0.0065000000 0.0065000000 0.0065000000 0.0065000000 0.0065000000 0.0065000000 0.0065000000 0.0065000000 0.0065000000 0.0065000000 0.0065000000 0.0065000000 0.0065000000 0.0065000000 0.0065000000 0.0065000000 0.0065000000 0.0065000000 0.0065000000 0.0065000000 0.0065000000 0.0065000000 0.0065000000 0.0065000000 0.0065000000 0.0065000000 0.0065000000 0.0065000000 0.0065000000 0.0065000000 0.0065000000 0.0065000000 0.0065000000 0.0065000000 0.0065000000 0.0065000000 0.0065000000 0.0065000000 0.0065000000 0.0065000000 0.0065000000 0.0065000000 0.0065000000 0.0065000000 0.0065000000 0.0065000000 0.0065000000 0.0065000000 0.0065000000 0.0065000000 0.0065000000 0.0065000000 0.0065000000 0.0065000000 0.0065000000 0.0065000000 0.0065000000 0.0065000000 0.0065000000 0.0065000000 0.0065000000 0.0065000000 0.0065000000 0.0065000000 0.0065000000 0.0065000000 0.0065000000 0.0065000000 0.0065000000 0.0065000000 0.0065000000 0.0065000000 0.0065000000 0.0065000000 0.0065000000 0.0065000000 0.0065000000 0.0065000000 0.0065000000 0.0065000000 0.0065000000 0.0065000000 0.0065000000 0.0065000000 0.0065000000 0.0065000000 0.0065000000 0.0065000000 0.0065000000 0.0065000000 0.0065000000 0.0065000000 0.0065000000 0.0065000000 0.0065000000 0.0065000000 0.0065000000 0.0065000000 0.0065000000 0.0065000000 0.0065000000 0.0065000000 0.0065000000 0.0065000000 0.0065000000 0.0065000000 0.0065000000 0.0065000000 0.0065000000 0.0065000000 0.0065000000 0.0065000000 0.0065000000 0.0065000000 0.0065000000 0.0065000000 0.0065000000 0.0065000000 0.0065000000 0.0065000000 0.0065000000 0.0065000000 0.0065000000 0.0065000000 0.0065000000 0.0065000000 0.0065000000 0.0065000000 0.0065000000 0.0065000000 0.0065000000 0.0065000000 0.0065000000 0.0065000000 0.0065000000 0.0065000000 0.0065000000 0.0065000000 0.0065000000 0.0065000000 0.0065000000 0.0065000000 0.0065000000 0.0065000000 0.0065000000 0.0065000000 0.0065000000 0.0065000000 0.0065000000 0.0065000000 0.0065000000 0.0065000000 0.0065000000 0.0065000000 0.0065000000 0.0065000000 0.0065000000 0.0065000000 0.0065000000 0.0065000000 0.0065000000 0.0065000000 0.0065000000 0.0065000000 0.0065000000 0.0065000000 0.0065000000 0.0065000000 0.0065000000 0.0065000000 0.0065000000 0.0065000000 0.0065000000 0.0065000000 0.0065000000 0.0065000000 0.0065000000 0.0065000000 0.0065000000 0.0065000000 0.0065000000 0.0065000000 0.0065000000 0.0065000000 0.0065000000 0.0065000000 0.0065000000 0.0065000000 0.0065000000 0.0065000000 0.0065000000 0.0065000000 0.0065000000 0.0065000000 0.0065000000 0.0065000000 0.0065000000 0.0065000000 0.0065000000 0.0065000000 0.0065000000 0.0065000000 0.0065000000 0.0065000000 0.0065000000 0.0065000000 0.0065000000 0.0065000000 0.0065000000 0.0065000000 0.0065000000 0.0065000000 0.0065000000 0.0065000000 0.0065000000 0.0065000000 0.0065000000 0.0065000000 0.0065000000 0.0065000000 0.0065000000 0.0065000000 0.0065000000 0.0065000000 0.0065000000 0.0065000000 0.0065000000 0.0065000000 0.0065000000 0.0065000000 0.0065000000 0.0065000000 0.0065000000 0.0065000000 0.0065000000 0.0065000000 0.0065000000 0.0065000000 0.0065000000 0.0065000000 0.0065000000 0.0065000000 0.0065000000 0.0065000000 0.0065000000 0.0065000000 0.0065000000 0.0065000000 0.0065000000 0.0065000000 0.0065000000 0.0065000000 0.0065000000 0.0065000000 0.0065000000 0.0065000000 0.0065000000 0.0065000000 0.0065000000 0.0065000000 0.0065000000 0.0065000000 0.0065000000 0.0065000000 0.0065000000 0.0065000000 0.0065000000 0.0065000000 0.0065000000 0.0065000000 0.0065000000 0.0065000000 0.0065000000 0.0065000000 0.0065000000 0.0065000000 0.0065000000 0.0065000000 0.0065000000 0.0065000000 0.0065000000 0.0065000000 0.0065000000 0.0065000000 0.0065000000 0.0065000000 0.0065000000 0.0065000000 0.0065000000 0.0065000000 0.0065000000 0.0065000000 0.0065000000 0.0065000000 0.0065000000 0.0065000000 0.0065000000 0.0065000000 0.0065000000 0.0065000000 0.0065000000 0.0065000000 0.0065000000 0.0065000000 0.0065000000 0.0065000000 0.0065000000 0.0065000000 0.0065000000 0.0065000000 0.0065000000 0.0065000000 0.0065000000 0.0065000000 0.0065000000 0.0065000000 0.0065000000 0.0065000000 0.0065000000 0.0065000000 0.0065000000 0.0065000000 0.0065000000 0.0065000000 0.0065000000 0.0065000000 0.0065000000 0.0065000000 0.0065000000 0.0065000000 0.0065000000 0.0065000000 0.0065000000 0.0065000000 0.0065000000 0.0065000000 0.0065000000 0.0065000000 0.0065000000 0.0065000000 0.0065000000 0.0065000000 0.0065000000 0.0065000000 0.0065000000 0.0065000000 0.0065000000 0.0065000000 0.0065000000 0.0065000000 0.0065000000 0.0065000000 0.0065000000 0.0065000000 0.0065000000 0.0065000000 0.0065000000 0.0065000000 0.0065000000 0.0065000000 0.0065000000 0.0065000000 0.0065000000 0.0065000000 0.0065000000 0.0065000000 0.0065000000 0.0065000000 0.0065000000 0.0065000000 0.0065000000 0.0065000000 0.0065000000 0.0065000000 0.0065000000 0.0065000000 0.0065000000 0.0065000000 0.0065000000 0.0065000000 0.0065000000 0.0065000000 0.0065000000 0.0065000000 0.0065000000 0.0065000000 0.0065000000 0.0065000000 0.0065000000 0.0065000000 0.0065000000 0.0065000000 0.0065000000 0.0065000000 0.0065000000 0.0065000000 0.0065000000 0.0065000000 0.0065000000 0.0065000000 0.0065000000 0.0065000000 0.0065000000 0.0065000000 0.0065000000 0.0065000000 0.0065000000 0.0065000000 0.0065000000 0.0065000000 0.0065000000 0.0065000000 0.0065000000 0.0065000000 0.0065000000 0.0065000000 0.0065000000 0.0065000000 0.0065000000 0.0065000000 0.0065000000 0.0065000000 0.0065000000 0.0065000000 0.0065000000 0.0065000000 0.0065000000 0.0065000000 0.0065000000 0.0065000000 0.0065000000 0.0065000000 0.0065000000 0.0065000000 0.0065000000 0.0065000000 0.0065000000 0.0065000000 0.0065000000 0.0065000000 0.0065000000 0.0065000000 0.0065000000 0.0065000000 0.0065000000 0.0065000000 0.0065000000 0.0065000000 0.0065000000 0.0065000000 0.0065000000 0.0065000000 0.0065000000 0.0065000000 0.0065000000 0.0065000000 0.0065000000 0.0065000000 0.0065000000 0.0065000000 0.0065000000 0.0065000000 0.0065000000 0.0065000000 0.0065000000 0.0065000000 0.0065000000 0.0065000000 0.0065000000 0.0065000000 0.0065000000 0.0065000000 0.0065000000 0.0065000000 0.0065000000 0.0065000000 0.0065000000 0.0065000000 0.0065000000 0.0065000000 0.0065000000 0.0065000000 0.0065000000 0.0065000000 0.0065000000 0.0065000000 0.0065000000 0.0065000000 0.0065000000 0.0065000000 0.0065000000 0.0065000000 0.0065000000 0.0065000000 0.0065000000 0.0065000000 0.0065000000 0.0065000000 0.0065000000 0.0065000000 0.0065000000 0.0065000000 0.0065000000 0.0065000000 0.0065000000 0.0065000000 0.0065000000 0.0065000000 0.0065000000 0.0065000000 0.0065000000 0.0065000000 0.0065000000 0.0065000000 0.0065000000 0.0065000000 0.0065000000 0.0065000000 0.0065000000 0.0065000000 0.0065000000 0.0065000000 0.0065000000 0.0065000000 0.0065000000 0.0065000000 0.0065000000 0.0065000000 0.0065000000 0.0065000000 0.0065000000 0.0065000000 0.0065000000 0.0065000000 0.0065000000 0.0065000000 0.0065000000 0.0065000000 0.0065000000 0.0065000000 0.0065000000 0.0065000000 0.0065000000 0.0065000000 0.0065000000 0.0065000000 0.0065000000 0.0065000000 0.0065000000 0.0065000000 0.0065000000 0.0065000000 0.0065000000 0.0065000000 0.0065000000 0.0065000000 0.0065000000 0.0065000000 0.0065000000 0.0065000000 0.0065000000 0.0065000000 0.0065000000 0.0065000000 0.0065000000 0.0065000000 0.0065000000 0.0065000000 0.0065000000 0.0065000000 0.0065000000 0.0065000000 0.0065000000 0.0065000000 0.0065000000 0.0065000000 0.0065000000 0.0065000000 0.0065000000 0.0065000000 0.0065000000 0.0065000000 0.0065000000 0.0065000000 0.0065000000 0.0065000000 0.0065000000 0.0065000000 0.0065000000 0.0065000000 0.0065000000 0.0065000000 0.0065000000 0.0065000000 0.0065000000 0.0065000000 0.0065000000 0.0065000000 0.0065000000 0.0065000000 0.0065000000 0.0065000000 0.0065000000 0.0065000000 0.0065000000 0.0065000000 0.0065000000 0.0065000000 0.0065000000 0.0065000000 0.0065000000 0.0065000000 0.0065000000 0.0065000000 0.0065000000 0.0065000000 0.0065000000 0.0065000000 0.0065000000 0.0065000000 0.0065000000 0.0065000000 0.0065000000 0.0065000000 0.0065000000 0.0065000000 0.0065000000 0.0065000000 0.0065000000 0.0065000000 0.0065000000 0.0065000000 0.0065000000 0.0065000000 0.0065000000 0.0065000000 0.0065000000 0.0065000000 0.0065000000 0.0065000000 0.0065000000 0.0065000000 0.0065000000 0.0065000000 0.0065000000 0.0065000000 0.0065000000 0.0065000000 0.0065000000 0.0065000000 0.0065000000 0.0065000000 0.0065000000 0.0065000000 0.0065000000 0.0065000000 0.0065000000 0.0065000000 0.0065000000 0.0065000000 0.0065000000 0.0065000000 0.0065000000 0.0065000000 0.0065000000 0.0065000000 0.0065000000 0.0065000000 0.0065000000 0.0065000000 0.0065000000 0.0065000000 0.0065000000 0.0065000000 0.0065000000 0.0065000000 0.0065000000 0.0065000000 0.0065000000 0.0065000000 0.0065000000 0.0065000000 0.0065000000 0.0065000000 0.0065000000 0.0065000000 0.0065000000 0.0065000000 0.0065000000 0.0065000000 0.0065000000 0.0065000000 0.0065000000 0.0065000000 0.0065000000 0.0065000000 0.0065000000 0.0065000000 0.0065000000 0.0065000000 0.0065000000 0.0065000000 0.0065000000 0.0065000000 0.0065000000 0.0065000000 0.0065000000 0.0065000000 0.0065000000 0.0065000000 0.0065000000 0.0065000000 0.0065000000 0.0065000000 0.0065000000 0.0065000000 0.0065000000 0.0065000000 0.0065000000 0.0065000000 0.0065000000 0.0065000000 0.0065000000 0.0065000000 0.0065000000 0.0065000000 0.0065000000 0.0065000000 0.0065000000 0.0065000000 0.0065000000 0.0065000000 0.0065000000 0.0065000000 0.0065000000 0.0065000000 0.0065000000 0.0065000000 0.0065000000 0.0065000000 0.0065000000 0.0065000000 0.0065000000 0.0065000000 0.0065000000 0.0065000000 0.0065000000 0.0065000000 0.0065000000 0.0065000000 0.0065000000 0.0065000000 0.0065000000 0.0065000000 0.0065000000 0.0065000000 0.0065000000 0.0065000000 0.0065000000 0.0065000000 0.0065000000 0.0065000000 0.0065000000 0.0065000000 0.0065000000 0.0065000000 0.0065000000 0.0065000000 0.0065000000 0.0065000000 0.0065000000 0.0065000000 0.0065000000 0.0065000000 0.0065000000 0.0065000000 0.0065000000 0.0065000000 0.0065000000 0.0065000000 0.0065000000 0.0065000000 0.0065000000 0.0065000000 0.0065000000 0.0065000000 0.0065000000 0.0065000000 0.0065000000 0.0065000000 0.0065000000 0.0065000000 0.0065000000 0.0065000000 0.0065000000 0.0065000000 0.0065000000 0.0065000000 0.0065000000 0.0065000000 0.0065000000 0.0065000000 0.0065000000 0.0065000000 0.0065000000 0.0065000000 0.0065000000 0.0065000000 0.0065000000 0.0065000000 0.0065000000 0.0065000000 0.0065000000 0.0065000000 0.0065000000 0.0065000000 0.0065000000 0.0065000000 0.0065000000 0.0065000000 0.0065000000 0.0065000000 0.0065000000 0.0065000000 0.0065000000 0.0065000000 0.0065000000 0.0065000000 0.0065000000 0.0065000000 0.0065000000 0.0065000000 0.0065000000 0.0065000000 0.0065000000 0.0065000000 0.0065000000 0.0065000000 0.0065000000 0.0065000000 0.0065000000 0.0065000000 0.0065000000 0.0065000000 0.0065000000 0.0065000000 0.0065000000 0.0065000000 0.0065000000 0.0065000000 0.0065000000 0.0065000000 0.0065000000 0.0065000000 0.0065000000 0.0065000000 0.0065000000 0.0065000000 0.0065000000 0.0065000000 0.0065000000 0.0065000000 0.006500000