<?xml version="1.0"?>
<VTKFile type="UnstructuredGrid" version="0.1" byte_order="LittleEndian">
  <UnstructuredGrid>
    <FieldData>
      <DataArray type="Float32" Name="TIME"  NumberOfTuples="1" format="ascii"> 2.7481072192 </DataArray>
      <DataArray type="Int32"   Name="STEP"  NumberOfTuples="1" format="ascii"> 36850 </DataArray>
    </FieldData>
    <Piece NumberOfPoints="18081" NumberOfCells="18081">
      <Points>
        <DataArray type="Float32" NumberOfComponents="3" format="ascii">
 0.0677744709 0.0899087614 0.0085108154 0.0084086510 0.0884521102 0.0003424093 0.1038056073 0.0615970988 0.0045470116 0.0856285969 0.0034911115 0.0079846174 0.1047146079 0.0289137102 0.0041593003 0.0141918287 0.0010184921 0.0152811208 0.4774610808 0.0118560026 0.0144155533 0.4145082867 0.0350303107 0.0078919469 0.4904614164 0.0009072066 0.0013183354 0.4303361159 0.0307376561 0.0097479405 0.4577862450 0.0226463169 0.0171949893 0.4985062380 0.0309231888 0.0099107847 0.4865403183 0.0107889751 0.0197394587 0.3829039083 0.0247501084 0.0211204850 0.4773211916 0.0483027600 0.0207969922 0.4317827168 0.0139776014 0.0283098897 0.4998019988 0.0188563864 0.0144882231 0.3500315970 0.0791194984 0.0280895678 0.4110432787 0.0164143566 0.0279496001 0.2290253651 0.0042426905 0.0096979108 0.4744374519 0.0036525937 0.0294000845 0.0983908629 0.0967695560 0.0001002264 0.0187907029 0.0505492844 0.0151319651 0.0768004730 0.0458323863 0.0038680564 0.0789932180 0.0438028754 0.0005474546 0.0208644833 0.0177747960 0.0050495183 0.4047138269 0.0000612319 0.0059977692 0.4874245100 0.0018847646 0.0084210368 0.4334010734 0.0239878106 0.0053037930 0.4859365550 0.0166755158 0.0261605897 0.4737724844 0.0123520012 0.0004100038 0.4259246837 0.0629834030 0.0184055401 0.4952163291 0.0221101018 0.0221263536 0.4197216187 0.0587678252 0.0135775751 0.4900167624 0.0229882996 0.0109461213 0.3776372846 0.0285136906 0.0219657458 0.4615083225 0.0242140135 0.0106829946 0.4036647808 0.0195451494 0.0264619507 0.0704378350 0.0403131059 0.0147544463 0.0182306681 0.0200653208 0.0152595515 0.3709022293 0.0187289749 0.0140196688 0.3037093716 0.0955984943 0.0266465760 0.1489158223 0.0253403876 0.0055121681 0.0014578688 0.0826097108 -0.0000739757 0.0821960029 0.0687762034 0.0007284655 0.2282171090 0.0705735474 0.0204227446 0.3727215335 0.0053878377 0.0098879113 0.4033273647 0.0352853582 0.0148582151 0.4799442939 0.0095343539 -0.0000187573 0.4986717864 0.0692868145 0.0078442947 0.4971063786 0.0721876733 0.0172002255 0.4559325980 0.0051986457 0.0048884255 0.3554743897 0.0514197953 0.0284809913 0.3879084470 0.0717075782 0.0031887947 0.4776123534 0.0466777338 0.0258670708 0.4780653237 0.0537070149 0.0116569999 0.4033644727 0.0241188124 0.0003237317 0.4284765124 0.0477633883 0.0007586678 0.4263512672 0.0097777821 0.0229897542 0.0215253372 0.0646686715 0.0087143662 0.4272329865 0.0453553506 0.0267833949 0.4926968243 0.0597458026 0.0090866322 0.4203125535 0.0567531249 0.0195940662 0.0868048539 0.0549982464 0.0005808972 0.1035087028 0.0124632764 0.0100463187 0.0820317923 0.0735132304 0.0038637590 0.0925623339 0.0392460700 0.0057210543 0.3854866538 0.0131718513 0.0078320596 0.4248763118 0.0103584350 0.0030439613 0.4336072165 0.0060590441 0.0026205696 0.3417139130 0.0240345114 0.0199980750 0.2993082341 0.0020233060 0.0217704911 0.4905553519 0.0425236827 0.0008039839 0.4151444447 0.0724612831 0.0224257949 0.3660065178 0.0639302698 0.0091203377 0.4538977924 0.0241403433 0.0142212523 0.3758464136 0.0093943752 0.0049911669 0.3134035743 0.0477482041 0.0070137925 0.3702920650 0.0310055810 0.0257076893 0.2895911978 0.0247954312 0.0245030605 0.0246396027 0.0708449818 0.0086793117 0.0597580410 0.0998467203 0.0047469196 0.0558088322 0.0450964562 0.0194570928 0.4617080883 0.0883943624 0.0081130584 0.1911969643 0.0336777733 0.0062390050 0.2168754199 0.0215612797 0.0002356400 0.0371389084 0.0509866862 0.0034068686 0.3154718958 0.0020595518 0.0161103649 0.3674371811 0.0158290240 -0.0003108435 0.4245125022 0.0016293150 0.0115955472 0.4587685545 0.0462420141 0.0037043457 0.4137194226 0.0105452311 0.0060316402 0.3942345461 0.0092491411 0.0049744398 0.3793189121 0.0244073100 0.0090158119 0.4688077479 0.0735308827 0.0012974696 0.3800152564 0.0693313868 0.0187424138 0.3559430833 0.0467365177 0.0180101307 0.3965933718 0.0545066899 0.0017420337 0.2777441562 0.0438941389 0.0174347117 0.3892098538 0.0522798179 0.0271981990 0.4565539381 0.0074264089 0.0294405822 0.3761419571 0.0284129122 0.0271289522 0.3281040793 0.0595750490 0.0247194343 0.3911961971 0.0043307020 0.0242786700 0.3494461125 0.0579265324 0.0280210682 0.1829823035 0.0209577817 0.0102435213 0.0842889267 0.0447558649 0.0004394121 0.0804321636 0.0635128309 0.0004996478 0.0049193610 0.0452900106 0.0033900803 0.4114778086 0.0089827344 0.0103242103 0.4728319012 0.0285964447 0.0005326830 0.3547421600 0.0386421306 0.0090221378 0.3697018716 0.0207691476 0.0211331620 0.2415471525 0.0433054466 0.0262520509 0.3860468490 0.0332055891 0.0018362595 0.3990176536 0.0454967111 0.0093961897 0.3680546182 0.0582220791 0.0089284897 0.3798138012 0.0678467035 0.0138506881 0.3353795067 0.0821756317 0.0265448843 0.4024799523 0.0454693512 0.0191933677 0.3823261815 0.0612005424 0.0204907904 0.2760054089 0.0098906534 0.0212589677 0.1097324684 0.0742397013 0.0050126771 0.3292095859 0.0034604401 0.0086696480 0.3707627494 0.0117993259 0.0290605259 0.4809070310 0.0645677452 0.0131232258 0.1868804294 0.0297483612 0.0004193122 0.2257646547 0.0074453481 0.0083010974 0.0685731127 0.0461980200 0.0003245747 0.3622499779 0.0190549346 -0.0005330267 0.3752674322 0.0152738049 0.0049181300 0.4041802465 0.0000265192 0.0002467217 0.3367738032 0.0299013992 0.0043168411 0.4380025927 0.0370220438 0.0006019361 0.3406358933 0.0222176030 0.0068600740 0.3532210141 0.0265513119 -0.0003138072 0.3673723552 0.0530269362 0.0056977173 0.4063021812 0.0583307522 0.0051645628 0.3129031128 0.0557407453 0.0178649383 0.4314480140 0.0724133790 0.0056108677 0.3012436556 0.0277465168 0.0048832162 0.4441646307 0.0624208323 0.0215467520 0.0107340346 0.0587455536 0.0080016404 0.1429539871 0.0348202544 0.0089211721 0.0864409225 0.0296265016 0.0125977079 0.0190562475 0.0887425284 0.0122778775 0.3159306000 0.1266011275 0.0263782016 0.1778857434 0.0194589698 0.0076070277 0.1131689363 0.0193793017 0.0006833329 0.1422649437 0.0158695713 0.0001682717 0.3656559664 0.0047506125 0.0001498091 0.3607731826 0.0163657667 0.0126698539 0.3777569962 0.0001447740 0.0118901160 0.3856381369 0.0298356694 0.0000108053 0.2003467345 0.0361451660 0.0259440597 0.4077043465 0.0382645989 0.0000641903 0.3571953599 0.0344974020 0.0031557314 0.4098166251 0.0860665486 0.0002446481 0.4425754304 0.0538243048 0.0156004218 0.3077329259 0.0629441481 0.0082330054 0.3661687465 0.0274385503 0.0211848460 0.3264724859 0.0444604215 0.0172377796 0.2539570845 0.0345269489 0.0234987922 0.2356050919 0.0616342980 0.0249258565 0.0344697147 0.0657889757 0.0100838580 0.2835420741 0.0156694909 0.0110558873 0.2376682170 0.0422814912 0.0266099415 0.0822074869 0.0494788442 0.0176504406 0.1042417407 0.0150857435 0.0053107157 0.2287255977 0.0370448171 0.0064711176 0.1570985576 0.0180936754 0.0001082758 0.3555889869 0.0009248458 0.0165545399 0.4175329740 0.0009833685 0.0074318005 0.4098067467 0.0003376742 0.0066561574 0.3646030800 0.0090647698 0.0081518391 0.3143600646 0.0235140316 0.0039863783 0.0606067701 0.0083004209 0.0057380252 0.0094962170 0.0505106805 0.0005657857 0.3727331021 0.0633137324 0.0098357131 0.4163438295 0.0831723183 0.0002525409 0.3649105911 0.0605524457 0.0004182755 0.3966235932 0.0679718333 0.0156106618 0.4249451844 0.0558095467 0.0234757843 0.4563371024 0.0883197490 0.0205649396 0.4429546956 0.0743593311 0.0279866513 0.0183198755 0.0427497613 0.0038385114 0.0777691480 0.0272576771 0.0123601184 0.4393280082 0.0373623532 0.0104568405 0.0813763800 0.0476992421 0.0123826434 0.2030459641 0.0352972269 0.0084519582 0.1952117243 0.0559122201 0.0069664766 0.2054499178 0.0415690314 0.0005955198 0.3578964328 -0.0005082981 0.0061088393 0.3797592267 0.0124611419 0.0116147435 0.3817156157 0.0032822238 -0.0006215576 0.3819319421 0.0212783347 0.0032745658 0.3749324464 0.0380581665 -0.0000919889 0.3705147235 0.0181609852 0.0072434789 0.2927688444 0.0097342056 0.0002473176 0.3903837920 0.0630742450 0.0000017894 0.4525915974 0.0400912274 0.0179119430 0.3758491393 0.0465580448 0.0149707446 0.4153405108 0.0173286666 0.0052404386 0.3050965286 0.0911973166 0.0225733646 0.2538147871 0.0058771968 0.0008764134 0.3374185064 0.0661464123 0.0272215269 0.1961329970 0.0898757869 0.0264819786 0.4086600516 0.0626218250 0.0180873658 0.0368311723 0.0177936207 0.0179435963 0.4542708185 0.0619183473 0.0132515880 0.1913908578 0.0305065351 0.0014384801 0.1496251515 0.0352993556 -0.0000006686 0.0722278064 0.0376479006 0.0003150747 0.3341751331 0.0236794631 0.0035109268 0.2992513753 0.0257415708 0.0118627254 0.3918906803 0.0047517570 0.0167275247 0.3320963151 0.0367825240 0.0015807246 0.4070271524 0.0817403447 0.0010993538 0.0708847126 0.0467720910 0.0090523906 0.3609385378 0.0077850520 -0.0004191899 0.4425001823 0.0705357571 0.0007140089 0.4825315310 0.0875043884 0.0010755729 0.3127129402 0.0704249900 0.0042162655 0.4845575896 0.0667730029 0.0088651809 0.3624352543 0.0590808468 0.0196899983 0.2515086749 0.0663874702 0.0121430099 0.2438469158 0.0653560993 0.0220857190 0.0731684333 0.0218910486 0.0004488129 0.2681020756 0.0663912729 0.0048357901 0.3656909305 0.1048838239 0.0245986313 0.4568085036 0.0676492628 0.0117531437 0.1979474491 0.0362404549 0.0073540727 0.1914478020 0.0584027859 0.0067004383 0.2150222378 0.0159633884 0.0000764786 0.3334948811 0.0039146463 0.0194588967 0.0459161316 0.0410057900 0.0046867600 0.3219288389 0.0330065966 0.0045575240 0.3540495494 0.0316850708 0.0000288054 0.3086674496 0.0263803250 0.0073311240 0.4285104589 0.0573493913 0.0006971096 0.3218234782 0.0500142072 0.0033840365 0.4469225918 0.0422317750 0.0163278533 0.4536606296 0.0849862218 0.0170256315 0.4473494730
[...]
      <PointData Scalars="smoothLength">
        <DataArray type="Float32" Name="smoothLength" format="ascii">
 0.0065000000 0.0065000000 0.0065000000 0.0065000000 0.0065000000 0.0065000000 0.0065000000 0.0065000000 0.0065000000 0.0065000000 0.0065000000 0.0065000000 0.0065000000 0.0065000000 0.0065000000 0.0065000000 0.0065000000 0.0065000000 0.0065000000 0.0065000000 0.0065000000 0.0065000000 0.0065000000 0.0065000000 0.0065000000 0.0065000000 0.0065000000 0.0065000000 0.0065000000 0.0065000000 0.0065000000 0.0065000000 0.0065000000 0.0065000000 0.0065000000 0.0065000000 0.0065000000 0.0065000000 0.0065000000 0.0065000000 0.0065000000 0.0065000000 0.0065000000 0.0065000000 0.0065000000 0.0065000000 0.0065000000 0.0065000000 0.0065000000 0.0065000000 0.0065000000 0.0065000000 0.0065000000 0.0065000000 0.0065000000 0.0065000000 0.0065000000 0.0065000000 0.0065000000 0.0065000000 0.0065000000 0.0065000000 0.0065000000 0.0065000000 0.0065000000 0.0065000000 0.0065000000 0.0065000000 0.0065000000 0.0065000000 0.0065000000 0.0065000000 0.0065000000 0.0065000000 0.0065000000 0.0065000000 0.0065000000 0.0065000000 0.0065000000 0.0065000000 0.0065000000 0.0065000000 0.0065000000 0.0065000000 0.0065000000 0.0065000000 0.0065000000 0.0065000000 0.0065000000 0.0065000000 0.0065000000 0.0065000000 0.0065000000 0.0065000000 0.0065000000 0.0065000000 0.0065000000 0.0065000000 0.0065000000 0.0065000000 0.0065000000 0.0065000000 0.0065000000 0.0065000000 0.0065000000 0.0065000000 0.0065000000 0.0065000000 0.0065000000 0.0065000000 0.0065000000 0.0065000000 0.0065000000 0.0065000000 0.0065000000 0.0065000000 0.0065000000 0.0065000000 0.0065000000 0.0065000000 0.0065000000 0.0065000000 0.0065000000 0.0065000000 0.0065000000 0.0065000000 0.0065000000 0.0065000000 0.0065000000 0.0065000000 0.0065000000 0.0065000000 0.0065000000 0.0065000000 0.0065000000 0.0065000000 0.0065000000 0.0065000000 0.0065000000 0.0065000000 0.0065000000 0.0065000000 0.0065000000 0.0065000000 0.0065000000 0.0065000000 0.0065000000 0.0065000000 0.0065000000 0.0065000000 0.0065000000 0.0065000000 0.0065000000 0.0065000000 0.0065000000 0.0065000000 0.0065000000 0.0065000000 0.0065000000 0.0065000000 0.0065000000 0.0065000000 0.0065000000 0.0065000000 0.0065000000 0.0065000000 0.0065000000 0.0065000000 0.0065000000 0.0065000000 0.0065000000 0.0065000000 0.0065000000 0.0065000000 0.0065000000 0.0065000000 0.0065000000 0.0065000000 0.0065000000 0.0065000000 0.0065000000 0.0065000000 0.0065000000 0.0065000000 0.0065000000 0.0065000000 0.0065000000 0.0065000000 0.0065000000 0.0065000000 0.0065000000 0.0065000000 0.0065000000 0.0065000000 0.0065000000 0.0065000000 0.0065000000 0.0065000000 0.0065000000 0.0065000000 0.0065000000 0.0065000000 0.0065000000 0.0065000000 0.0065000000 0.0065000000 0.0065000000 0.0065000000 0.0065000000 0.0065000000 0.0065000000 0.0065000000 0.0065000000 0.0065000000 0.0065000000 0.0065000000 0.0065000000 0.0065000000 0.0065000000 0.0065000000 0.0065000000 0.0065000000 0.0065000000 0.0065000000 0.0065000000 0.0065000000 0.0065000000 0.0065000000 0.0065000000 0.0065000000 0.0065000000 0.0065000000 0.0065000000 0.0065000000 0.0065000000 0.0065000000 0.0065000000 0.0065000000 0.0065000000 0.0065000000 0.0065000000 0.0065000000 0.0065000000 0.0065000000 0.0065000000 0.0065000000 0.0065000000 0.0065000000 0.0065000000 0.0065000000 0.0065000000 0.0065000000 0.0065000000 0.0065000000 0.0065000000 0.0065000000 0.0065000000 0.0065000000 0.0065000000 0.0065000000 0.0065000000 0.0065000000 0.0065000000 0.0065000000 0.0065000000 0.0065000000 0.0065000000 0.0065000000 0.0065000000 0.0065000000 0.0065000000 0.0065000000 0.0065000000 0.0065000000 0.0065000000 0.0065000000 0.0065000000 0.0065000000 0.0065000000 0.0065000000 0.0065000000 0.0065000000 0.0065000000 0.0065000000 0.0065000000 0.0065000000 0.0065000000 0.0065000000 0.0065000000 0.0065000000 0.0065000000 0.0065000000 0.0065000000 0.0065000000 0.0065000000 0.0065000000 0.0065000000 0.0065000000 0.0065000000 0.0065000000 0.0065000000 0.0065000000 0.0065000000 0.0065000000 0.0065000000 0.0065000000 0.0065000000 0.0065000000 0.0065000000 0.0065000000 0.0065000000 0.0065000000 0.0065000000 0.0065000000 0.0065000000 0.0065000000 0.0065000000 0.0065000000 0.0065000000 0.0065000000 0.0065000000 0.0065000000 0.0065000000 0.0065000000 0.0065000000 0.0065000000 0.0065000000 0.0065000000 0.0065000000 0.0065000000 0.0065000000 0.0065000000 0.0065000000 0.0065000000 0.0065000000 0.0065000000 0.0065000000 0.0065000000 0.0065000000 0.0065000000 0.0065000000 0.0065000000 0.0065000000 0.0065000000 0.0065000000 0.0065000000 0.0065000000 0.0065000000 0.0065000000 0.0065000000 0.0065000000 0.0065000000 0.0065000000 0.0065000000 0.0065000000 0.0065000000 0.0065000000 0.0065000000 0.0065000000 0.0065000000 0.0065000000 0.0065000000 0.0065000000 0.0065000000 0.0065000000 0.0065000000 0.0065000000 0.0065000000 0.0065000000 0.0065000000 0.0065000000 0.0065000000 0.0065000000 0.0065000000 0.0065000000 0.0065000000 0.0065000000 0.0065000000 0.0065000000 0.0065000000 0.0065000000 0.0065000000 0.0065000000 0.0065000000 0.0065000000 0.0065000000 0.0065000000 0.0065000000 0.0065000000 0.0065000000 0.0065000000 0.0065000000 0.0065000000 0.0065000000 0.0065000000 0.0065000000 0.0065000000 0.0065000000 0.0065000000 0.0065000000 0.0065000000 0.0065000000 0.0065000000 0.0065000000 0.0065000000 0.0065000000 0.0065000000 0.0065000000 0.0065000000 0.0065000000 0.0065000000 0.0065000000 0.0065000000 0.0065000000 0.0065000000 0.0065000000 0.0065000000 0.0065000000 0.0065000000 0.0065000000 0.0065000000 0.0065000000 0.0065000000 0.0065000000 0.0065000000 0.0065000000 0.0065000000 0.0065000000 0.0065000000 0.0065000000 0.0065000000 0.0065000000 0.0065000000 0.0065000000 0.0065000000 0.0065000000 0.0065000000 0.0065000000 0.0065000000 0.0065000000 0.0065000000 0.0065000000 0.0065000000 0.0065000000 0.0065000000 0.0065000000 0.0065000000 0.0065000000 0.0065000000 0.0065000000 0.0065000000 0.0065000000 0.0065000000 0.0065000000 0.0065000000 0.0065000000 0.0065000000 0.0065000000 0.0065000000 0.0065000000 0.0065000000 0.0065000000 0.0065000000 0.0065000000 0.0065000000 0.0065000000 0.0065000000 0.0065000000 0.0065000000 0.0065000000 0.0065000000 0.0065000000 0.0065000000 0.0065000000 0.0065000000 0.0065000000 0.0065000000 0.0065000000 0.0065000000 0.0065000000 0.0065000000 0.0065000000 0.0065000000 0.0065000000 0.0065000000 0.0065000000 0.0065000000 0.0065000000 0.0065000000 0.0065000000 0.0065000000 0.0065000000 0.0065000000 0.0065000000 0.0065000000 0.0065000000 0.0065000000 0.0065000000 0.0065000000 0.0065000000 0.0065000000 0.0065000000 0.0065000000 0.0065000000 0.0065000000 0.0065000000 0.0065000000 0.0065000000 0.0065000000 0.0065000000 0.0065000000 0.0065000000 0.0065000000 0.0065000000 0.0065000000 0.0065000000 0.0065000000 0.0065000000 0.0065000000 0.0065000000 0.0065000000 0.0065000000 0.0065000000 0.0065000000 0.0065000000 0.0065000000 0.0065000000 0.0065000000 0.0065000000 0.0065000000 0.0065000000 0.0065000000 0.0065000000 0.0065000000 0.0065000000 0.0065000000 0.0065000000 0.0065000000 0.0065000000 0.0065000000 0.0065000000 0.0065000000 0.0065000000 0.0065000000 0.0065000000 0.0065000000 0.0065000000 0.0065000000 0.0065000000 0.0065000000 0.0065000000 0.0065000000 0.0065000000 0.0065000000 0.0065000000 0.0065000000 0.0065000000 0.0065000000 0.0065000000 0.0065000000 0.0065000000 0.0065000000 0.0065000000 0.0065000000 0.0065000000 0.0065000000 0.0065000000 0.0065000000 0.0065000000 0.0065000000 0.0065000000 0.0065000000 0.0065000000 0.0065000000 0.0065000000 0.0065000000 0.0065000000 0.0065000000 0.0065000000 0.0065000000 0.0065000000 0.0065000000 0.0065000000 0.0065000000 0.0065000000 0.0065000000 0.0065000000 0.0065000000 0.0065000000 0.0065000000 0.0065000000 0.0065000000 0.0065000000 0.0065000000 0.0065000000 0.0065000000 0.0065000000 0.0065000000 0.0065000000 0.0065000000 0.0065000000 0.0065000000 0.0065000000 0.0065000000 0.0065000000 0.0065000000 0.0065000000 0.0065000000 0.0065000000 0.0065000000 0.0065000000 0.0065000000 0.0065000000 0.0065000000 0.0065000000 0.0065000000 0.0065000000 0.0065000000 0.0065000000 0.0065000000 0.0065000000 0.0065000000 0.0065000000 0.0065000000 0.0065000000 0.0065000000 0.0065000000 0.0065000000 0.0065000000 0.0065000000 0.0065000000 0.0065000000 0.0065000000 0.0065000000 0.0065000000 0.0065000000 0.0065000000 0.0065000000 0.0065000000 0.0065000000 0.0065000000 0.0065000000 0.0065000000 0.0065000000 0.0065000000 0.0065000000 0.0065000000 0.0065000000 0.0065000000 0.0065000000 0.0065000000 0.0065000000 0.0065000000 0.0065000000 0.0065000000 0.0065000000 0.0065000000 0.0065000000 0.0065000000 0.0065000000 0.0065000000 0.0065000000 0.0065000000 0.0065000000 0.0065000000 0.0065000000 0.0065000000 0.0065000000 0.0065000000 0.0065000000 0.0065000000 0.0065000000 0.0065000000 0.0065000000 0.0065000000 0.0065000000 0.0065000000 0.0065000000 0.0065000000 0.0065000000 0.0065000000 0.0065000000 0.0065000000 0.0065000000 0.0065000000 0.0065000000 0.0065000000 0.0065000000 0.0065000000 0.0065000000 0.0065000000 0.0065000000 0.0065000000 0.0065000000 0.0065000000 0.0065000000 0.0065000000 0.0065000000 0.0065000000 0.0065000000 0.0065000000 0.0065000000 0.0065000000 0.0065000000 0.0065000000 0.0065000000 0.0065000000 0.0065000000 0.0065000000 0.0065000000 0.0065000000 0.0065000000 0.0065000000 0.0065000000 0.0065000000 0.0065000000 0.0065000000 0.0065000000 0.0065000000 0.0065000000 0.0065000000 0.0065000000 0.0065000000 0.0065000000 0.0065000000 0.0065000000 0.0065000000 0.0065000000 0.0065000000 0.0065000000 0.0065000000 0.0065000000 0.0065000000 0.0065000000 0.0065000000 0.0065000000 0.0065000000 0.0065000000 0.0065000000 0.0065000000 0.0065000000 0.0065000000 0.0065000000 0.0065000000 0.0065000000 0.0065000000 0.0065000000 0.0065000000 0.0065000000 0.0065000000 0.0065000000 0.0065000000 0.0065000000 0.0065000000 0.0065000000 0.0065000000 0.0065000000 0.0065000000 0.0065000000 0.0065000000 0.0065000000 0.0065000000 0.0065000000 0.0065000000 0.0065000000 0.0065000000 0.0065000000 0.0065000000 0.0065000000 0.0065000000 0.0065000000 0.0065000000 0.0065000000 0.0065000000 0.0065000000 0.0065000000 0.0065000000 0.0065000000 0.0065000000 0.0065000000 0.0065000000 0.0065000000 0.0065000000 0.0065000000 0.0065000000 0.0065000000 0.0065000000 0.0065000000 0.0065000000 0.0065000000 0.0065000000 0.0065000000 0.0065000000 0.0065000000 0.0065000000 0.0065000000 0.0065000000 0.0065000000 0.0065000000 0.0065000000 0.0065000000 0.0065000000 0.0065000000 0.0065000000 0.0065000000 0.0065000000 0.0065000000 0.0065000000 0.0065000000 0.0065000000 0.0065000000 0.0065000000 0.0065000000 0.0065000000 0.0065000000 0.0065000000 0.0065000000 0.0065000000 0.0065000000 0.0065000000 0.0065000000 0.0065000000 0.0065000000 0.0065000000 0.0065000000 0.0065000000 0.0065000000 0.0065000000 0.0065000000 0.0065000000 0.0065000000 0.0065000000 0.0065000000 0.0065000000 0.0065000000 0.0065000000 0.0065000000 0.0065000000 0.0065000000 0.0065000000 0.0065000000 0.0065000000 0.0065000000 0.0065000000 0.0065000000 0.0065000000 0.0065000000 0.0065000000 0.0065000000 0.0065000000 0.0065000000 0.0065000000 0.0065000000 0.0065000000 0.0065000000 0.0065000000 0.0065000000 0.0065000000 0.0065000000 0.0065000000 0.0065000000 0.0065000000 0.0065000000 0.0065000000 0.0065000000 0.0065000000 0.0065000000 0.0065000000 0.0065000000 0.0065000000 0.0065000000 0.0065000000 0.0065000000 0.0065000000 0.0065000000 0.0065000000 0.0065000000 0.0065000000 0.0065000000 0.0065000000 0.0065000000 0.0065000000 0.0065000000 0.0065000000 0.0065000000 0.0065000000 0.0065000000 0.0065000000 0.0065000000 0.0065000000 0.0065000000 0.0065000000 0.0065000000 0.0065000000 0.0065000000 0.0065000000 0.0065000000 0.0065000000 0.0065000000 0.0065000000 0.0065000000 0.0065000000 0.0065000000 0.0065000000 0.0065000000 0.0065000000 0.0065000000 0.0065000000 0.0065000000 0.0065000000 0.0065000000 0.0065000000 0.0065000000 0.0065000000 0.0065000000 0.0065000000 0.0065000000 0.0065000000 0.0065000000 0.0065000000 0.0065000000 0.0065000000 0.0065000000 0.0065000000 0.0065000000 0.0065000000 0.0065000000 0.0065000000 0.0065000000 0.0065000000 0.0065000000 0.0065000000 0.0065000000 0.0065000000 0.0065000000 0.0065000000 0.0065000000 0.0065000000 0.0065000000 0.0065000000 0.0065000000 0.0065000000 0.0065000000 0.0065000000 0.0065000000 0.0065000000 0.0065000000 0.0065000000 0.0065000000 0.0065000000 0.0065000000 0.0065000000 0.0065000000 0.0065000000 0.0065000000 0.0065000000 0.0065000000 0.0065000000 0.0065000000 0.0065000000 0.0065000000 0.0065000000 0.0065000000 0.0065000000 0.0065000000 0.0065000000 0.0065000000 0.0065000000 0.0065000000 0.0065000000 0.0065000000 0.0065000000 0.0065000000 0.0065000000 0.0065000000 0.0065000000 0.0065000000 0.0065000000 0.0065000000 0.0065000000 0.0065000000 0.0065000000 0.0065000000 0.0065000000 0.0065000000 0.0065000000 0.0065000000 0.0065000000 0.0065000000 0.0065000000 0.0065000000 0.0065000000 0.0065000000 0.0065000000 0.0065000000 0.0065000000 0.0065000000 0.0065000000 0.0065000000 0.0065000000 0.0065000000 0.0065000000 0.0065000000 0.0065000000 0.0065000000 0.0065000000 0.0065000000 0.0065000000 0.0065000000 0.0065000000 0.0065000000 0.0065000000 0.0065000000 0.0065000000 0.0065000000 0.0065000000 0.0065000000 0.0065000000 0.0065000000 0.0065000000 0.0065000000 0.0065000000 0.0065000000 0.0065000000 0.0065000000 0.0065000000 0.0065000000 0.0065000000 0.0065000000 0.0065000000 0.0065000000 0.0065000000 0.0065000000 0.0065000000 0.0065000000 0.0065000000 0.0065000000 0.0065000000 0.0065000000 0.0065000000 0.0065000000 0.0065000000 0.0065000000 0.0065000000 0.0065000000 0.0065000000 0.0065000000 0.0065000000 0.0065000000 0.0065000000 0.0065000000 0.0065000000 0.0065000000 0.0065000000 0.0065000000 0.0065000000 0.0065000000 0.0065000000 0.0065000000 0.0065000000 0.0065000000 0.0065000000 0.0065000000 0.0065000000 0.0065000000 0.0065000000 0.0065000000 0.0065000000 0.0065000000 0.0065000000 0.0065000000 0.0065000000 0.0065000000 0.0065000000 0.0065000000 0.0065000000 0.0065000000 0.0065000000 0.0065000000 0.0065000000 0.0065000000 0.0065000000 0.0065000000 0.0065000000 0.0065000000 0.0065000000 0.0065000000 0.0065000000 0.0065000000 0.0065000000 0.0065000000 0.0065000000 0.0065000000 0.0065000000 0.0065000000 0.0065000000 0.0065000000 0.0065000000 0.0065000000 0.0065000000 0.0065000000 0.0065000000 0.0065000000 0.0065000000 0.0065000000 0.0065000000 0.0065000000 0.0065000000 0.0065000000 0.0065000000 0.0065000000 0.0065000000 0.0065000000 0.0065000000 0.0065000000 0.0065000000 0.0065000000 0.0065000000 0.0065000000 0.0065000000 0.0065000000 0.0065000000 0.0065000000 0.0065000000 0.0065000000 0.0065000000 0.0065000000 0.0065000000 0.0065000000 0.0065000000 0.0065000000 0.0065000000 0.0065000000 0.0065000000 0.0065000000 0.0065000000 0.0065000000 0.0065000000 0.0065000000 0.0065000000 0.0065000000 0.0065000000 0.0065000000 0.0065000000 0.0065000000 0.0065000000 0.0065000000 0.0065000000 0.0065000000 0.0065000000 0.0065000000 0.0065000000 0.0065000000 0.0065000000 0.0065000000 0.0065000000 0.0065000000 0.0065000000 0.0065000000 0.0065000000 0.0065000000 0.0065000000 0.0065000000 0.0065000000 0.0065000000 0.0065000000 0.0065000000 0.0065000000 0.0065000000 0.0065000000 0.0065000000 0.0065000000 0.0065000000 0.0065000000 0.0065000000 0.0065000000 0.0065000000 0.0065000000 0.0065000000 0.0065000000 0.0065000000 0.0065000000 0.0065000000 0.0065000000 0.0065000000 0.0065000000 0.0065000000 0.0065000000 0.0065000000 0.0065000000 0.0065000000 0.0065000000 0.0065000000 0.0065000000 0.0065000000 0.0065000000 0.0065000000 0.0065000000 0.0065000000 0.0065000000 0.0065000000 0.0065000000 0.0065000000 0.0065000000 0.0065000000 0.0065000000 0.0065000000 0.0065000000 0.0065000000 0.0065000000 0.0065000000 0.0065000000 0.0065000000 0.0065000000 0.0065000000 0.0065000000 0.0065000000 0.0065000000 0.0065000000 0.0065000000 0.0065000000 0.0065000000 0.0065000000 0.0065000000 0.0065000000 0.0065000000 0.0065000000 0.0065000000 0.0065000000 0.0065000000 0.0065000000 0.0065000000 0.0065000000 0.0065000000 0.0065000000 0.0065000000 0.0065000000 0.0065000000 0.0065000000 0.0065000000 0.0065000000 0.0065000000 0.0065000000 0.0065000000 0.0065000000 0.0065000000 0.0065000000 0.0065000000 0.0065000000 0.0065000000 0.0065000000 0.0065000000 0.0065000000 0.0065000000 0.0065000000 0.0065000000 0.0065000000 0.0065000000 0.0065000000 0.0065000000 0.0065000000 0.0065000000 0.0065000000 0.0065000000 0.0065000000 0.0065000000 0.0065000000 0.0065000000 0.0065000000 0.0065000000 0.0065000000 0.0065000000 0.0065000000 0.0065000000 0.0065000000 0.0065000000 0.0065000000 0.0065000000 0.0065000000 0.0065000000 0.0065000000 0.0065000000 0.0065000000 0.0065000000 0.0065000000 0.0065000000 0.0065000000 0.0065000000 0.0065000000 0.0065000000 0.0065000000 0.0065000000 0.0065000000 0.0065000000 0.0065000000 0.0065000000 0.0065000000 0.0065000000 0.0065000000 0.0065000000 0.0065000000 0.0065000000 0.0065000000 0.0065000000 0.0065000000 0.0065000000 0.0065000000 0.0065000000 0.0065000000 0.0065000000 0.0065000000 0.0065000000 0.0065000000 0.0065000000 0.0065000000 0.0065000000 0.0065000000 0.0065000000 0.0065000000 0.0065000000 0.0065000000 0.0065000000 0.0065000000 0.0065000000 0.0065000000 0.0065000000 0.0065000000 0.0065000000 0.0065000000 0.0065000000 0.0065000000 0.0065000000 0.0065000000 0.0065000000 0.0065000000 0.0065000000 0.0065000000 0.0065000000 0.0065000000 0.0065000000 0.0065000000 0.0065000000 0.0065000000 0.0065000000 0.0065000000 0.0065000000 0.0065000000 0.0065000000 0.0065000000 0.0065000000 0.0065000000 0.0065000000 0.0065000000 0.0065000000 0.0065000000 0.0065000000 0.0065000000 0.0065000000 0.0065000000 0.0065000000 0.0065000000 0.0065000000 0.0065000000 0.0065000000 0.0065000000 0.0065000000 0.0065000000 0.0065000000 0.0065000000 0.0065000000 0.0065000000 0.0065000000 0.0065000000 0.0065000000 0.0065000000 0.0065000000 0.0065000000 0.0065000000 0.0065000000 0.0065000000 0.0065000000 0.0065000000 0.0065000000 0.0065000000 0.0065000000 0.0065000000 0.0065000000 0.0065000000 0.0065000000 0.0065000000 0.0065000000 0.0065000000 0.0065000000 0.0065000000 0.0065000000 0.0065000000 0.0065000000 0.0065000000 0.0065000000 0.0065000000 0.0065000000 0.0065000000 0.0065000000 0.0065000000 0.0065000000 0.0065000000 0.0065000000 0.0065000000 0.0065000000 0.0065000000 0.0065000000 0.0065000000 0.0065000000 0.0065000000 0.0065000000 0.0065000000 0.0065000000 0.0065000000 0.0065000000 0.0065000000 0.0065000000 0.0065000000 0.0065000000 0.0065000000 0.0065000000 0.0065000000 0.0065000000 0.0065000000 0.0065000000 0.0065000000 0.0065000000 0.0065000000 0.0065000000 0.0065000000 0.0065000000 0.0065000000 0.0065000000 0.0065000000 0.0065000000 0.0065000000 0.0065000000 0.0065000000 0.0065000000 0.0065000000 0.0065000000 0.0065000000 0.0065000000 0.0065000000 0.0065000000 0.0065000000 0.0065000000 0.0065000000 0.0065000000 0.0065000000 0.0065000000 0.0065000000 0.0065000000 0.0065000000 0.0065000000 0.0065000000 0.0065000000 0.0065000000 0.0065000000 0.0065000000 0.0065000000 0.0065000000 0.0065000000 0.0065000000 0.0065000000 0.0065000000 0.0065000000 0.0065000000 0.0065000000 0.0065000000 0.0065000000 0.0065000000 0.0065000000 0.0065000000 0.0065000000 0.0065000000 0.0065000000 0.0065000000 0.0065000000 0.0065000000 0.0065000000 0.0065000000 0.0065000000 0.0065000000 0.0065000000 0.0065000000 0.0065000000 0.0065000000 0.0065000000 0.0065000000 0.0065000000 0.0065000000 0.0065000000 0.0065000000 0.0065000000 0.0065000000 0.0065000000 0.0065000000 0.0065000000 0.0065000000 0.0065000000 0.0065000000 0.0065000000 0.0065000000 0.0065000000 0.0065000000 0.0065000000 0.0065000000 0.0065000000 0.0065000000 0.0065000000 0.0065000000 0.0065000000 0.0065000000 0.0065000000 0.0065000000 0.0065000000 0.0065000000 0.0065000000 0.0065000000 0.0065000000 0.0065000000 0.0065000000 0.0065000000 0.0065000000 0.006500000