<?xml version="1.0"?>
<VTKFile type="UnstructuredGrid" version="0.1" byte_order="LittleEndian">
  <UnstructuredGrid>
    <FieldData>
      <DataArray type="Float32" Name="TIME"  NumberOfTuples="1" format="ascii"> 0.2997935148 </DataArray>
      <DataArray type="Int32"   Name="STEP"  NumberOfTuples="1" format="ascii"> 4020 </DataArray>
    </FieldData>
    <Piece NumberOfPoints="18081" NumberOfCells="18081">
      <Points>
        <DataArray type="Float32" NumberOfComponents="3" format="ascii">
 0.0043376265 -0.0003052325 -0.0004504235 0.0119954640 -0.0000980253 -0.0007761566 0.0221539539 0.0002461395 -0.0007885423 0.0344257214 -0.0002593251 -0.0006462040 0.0460358204 0.0000416830 -0.0006081632 0.0601027074 -0.0002358859 -0.0004879787 0.0745552366 0.0000640978 -0.0008261291 0.0897408066 0.0001725343 -0.0009721623 0.1070901873 0.0004886329 -0.0008747226 0.1256039556 0.0010939601 -0.0010276034 0.1468682281 -0.0006446859 -0.0003856959 0.1675270413 -0.0006211444 -0.0007138963 0.1890230081 -0.0000079582 -0.0006327203 0.2156289785 -0.0004870465 0.0007053996 0.2323323649 -0.0000789613 -0.0003227371 0.2600360317 -0.0003340938 -0.0006125657 0.2894898920 -0.0013161743 -0.0002582540 0.3313556002 0.0007477797 -0.0003305922 0.3834221170 -0.0007935578 -0.0006823831 0.4277140296 0.0008996441 0.0000444802 0.4702030034 0.0002414236 0.0003219464 0.0079309387 0.0079520306 -0.0001616189 0.0167466593 0.0017681671 -0.0003313988 0.0290295442 0.0035416117 -0.0008073583 0.0458293050 0.0059043714 -0.0006775063 0.0621352591 0.0057819871 -0.0012662329 0.0800254224 0.0072439984 -0.0009769612 0.0969632390 0.0065084233 -0.0007585799 0.1098183893 0.0083022053 -0.0002461482 0.1286448604 0.0087808308 -0.0010677952 0.1478049782 0.0120105523 -0.0009042628 0.1745731227 0.0111754203 -0.0006353633 0.1960626671 0.0096241524 0.0000853009 0.2262768409 0.0067534373 -0.0002254965 0.2606338683 0.0049049865 -0.0004040760 0.2889118082 0.0031452780 0.0002301367 0.3114361043 0.0042783371 -0.0008328247 0.3436196324 0.0006248262 -0.0006626862 0.3892652609 0.0057124181 -0.0007315327 0.4096478203 -0.0004856872 -0.0004500778 0.4472901499 -0.0001411762 0.0005290012 0.4993773859 0.0008945926 0.0040618158 0.0065424156 0.0132741886 -0.0006716175 0.0130626356 0.0065459117 -0.0008738480 0.0209067028 0.0127423543 -0.0001175633 0.0359243528 0.0072276507 -0.0006835400 0.0525351950 0.0111393893 -0.0004075124 0.0651852583 0.0114637519 -0.0005205123 0.0840284560 0.0123175561 -0.0002819171 0.1042435224 0.0139170187 -0.0007664395 0.1251620194 0.0134144945 -0.0010170638 0.1407111552 0.0132508934 -0.0006259062 0.1635456385 0.0130580290 -0.0000965181 0.1911784516 0.0114556503 -0.0005817422 0.2147940530 0.0143533936 -0.0011386321 0.2402863369 0.0130639608 0.0002898674 0.2690118165 0.0080520946 0.0009192085 0.3043794334 0.0063310782 -0.0007841263 0.3512148077 0.0046062815 -0.0012850876 0.3947811732 0.0103502316 -0.0000326204 0.4326758411 0.0060014517 -0.0007525405 0.4615246548 0.0008325622 -0.0001990818 0.4984281671 0.0033788429 0.0003471799 0.0091013395 0.0167366077 -0.0002574751 0.0144526498 0.0134019198 -0.0007321251 0.0232862552 0.0174881694 -0.0005371722 0.0414707773 0.0158315917 -0.0005924730 0.0631466103 0.0183925329 -0.0010500808 0.0798034742 0.0155116693 -0.0012225593 0.0971818856 0.0141754227 -0.0010643606 0.1144382288 0.0122302220 -0.0007858305 0.1351366441 0.0159355903 -0.0008538262 0.1549707057 0.0144041139 -0.0010032954 0.1795189687 0.0133127587 -0.0006208497 0.2034649950 0.0112758387 -0.0005708483 0.2263127691 0.0116023239 -0.0006353924 0.2460325837 0.0112180817 -0.0006327467 0.2818889983 0.0108196595 -0.0011709701 0.3068089139 0.0108492339 -0.0008346502 0.3408873026 0.0113311468 -0.0001773812 0.3869209839 0.0134638291 -0.0006620187 0.4197740120 0.0072077372 -0.0006071464 0.4696072067 0.0075165235 -0.0008694765 0.5004131328 0.0076957849 0.0012650890 0.0088219007 0.0216297517 -0.0004713659 0.0163186601 0.0177635609 -0.0007453136 0.0284595913 0.0220113905 -0.0011937798 0.0420968595 0.0208919748 -0.0008022783 0.0561181956 0.0218446509 -0.0004993952 0.0725444268 0.0197203994 -0.0010115768 0.0924428270 0.0205839089 -0.0007527079 0.1104373848 0.0184687423 -0.0007157797 0.1285184127 0.0184227915 -0.0006731932 0.1493099347 0.0168606535 -0.0006702054 0.1694116662 0.0172866010 -0.0006737973 0.1979022643 0.0182092302 -0.0004994781 0.2191935020 0.0178786522 -0.0003108943 0.2467378714 0.0163398295 -0.0006469539 0.2735326571 0.0168342750 -0.0008644997 0.3100702143 0.0161759856 0.0001530590 0.3454142704 0.0165787857 -0.0008785649 0.3950303153 0.0200099487 -0.0009338992 0.4297258782 0.0146908525 -0.0007087591 0.4728585598 0.0159146679 -0.0005487823 0.4998937622 0.0146687927 0.0037908779 0.0101746911 0.0282027861 -0.0002018925 0.0150095638 0.0227571903 -0.0008805463 0.0242531030 0.0274800154 -0.0007083224 0.0446495268 0.0268242896 -0.0007721602 0.0599921904 0.0251376254 -0.0006348341 0.0778115344 0.0242747875 -0.0006435429 0.0936939327 0.0260710019 -0.0005053085 0.1096731558 0.0235253761 -0.0000878781 0.1234197647 0.0267508404 -0.0008363145 0.1435729336 0.0250424643 -0.0009875090 0.1637778312 0.0244217886 -0.0001862213 0.1889965814 0.0266618411 -0.0003326636 0.2090685600 0.0219497076 -0.0006113180 0.2364758028 0.0234248054 0.0008243565 0.2689142918 0.0215583990 -0.0009227442 0.3045320090 0.0213196761 -0.0013944882 0.3502481895 0.0258246741 -0.0013185190 0.3871148812 0.0227864280 -0.0000437353 0.4220822727 0.0203632139 -0.0010908363 0.4761377458 0.0201433444 -0.0010973839 0.5001129809 0.0193842178 0.0040414267 0.0142379364 0.0328015025 -0.0006732249 0.0172595350 0.0282956255 -0.0009994942 0.0284558717 0.0319918139 -0.0009319746 0.0472812113 0.0325710596 -0.0011641524 0.0628017615 0.0296235294 -0.0003497811 0.0770552503 0.0289954600 -0.0005307933 0.0928227516 0.0298271519 -0.0000942523 0.1107706961 0.0280559516 -0.0005470259 0.1303353414 0.0294689322 -0.0003425425 0.1481059616 0.0317684737 -0.0008794690 0.1653402831 0.0290090870 -0.0003822514 0.1957550368 0.0280439148 -0.0004328956 0.2129234862 0.0262426125 -0.0009965726 0.2402820313 0.0266419200 -0.0004955715 0.2718166963 0.0262813138 -0.0008769536 0.3093714928 0.0264359169 -0.0000565208 0.3426880306 0.0263262766 -0.0009552263 0.3934521897 0.0275208234 -0.0010188696 0.4284027776 0.0259912965 0.0000901561 0.4740162900 0.0259317572 -0.0007324518 0.5001091934 0.0249327899 0.0020294621 0.0069275404 0.0316527437 -0.0006408579 0.0206803545 0.0342220620 -0.0003207121 0.0249429656 0.0370734985 -0.0004121604 0.0418893616 0.0350070892 -0.0007711024 0.0599681705 0.0337429742 -0.0007915108 0.0738442935 0.0337461521 -0.0006023196 0.0940099136 0.0342095168 -0.0005033686 0.1062674293 0.0341670082 -0.0005918636 0.1269707440 0.0333559759 -0.0009817670 0.1419555769 0.0342359302 -0.0012234747 0.1645456028 0.0343713475 -0.0002925160 0.1899227455 0.0319465769 -0.0006324335 0.2095609333 0.0321043849 -0.0009181983 0.2431997772 0.0325726601 -0.0003121343 0.2730973848 0.0317396375 -0.0006226602 0.3083176681 0.0321307062 -0.0004921873 0.3445678356 0.0315785356 -0.0003783183 0.3912345101 0.0333501126 0.0000663993 0.4266930959 0.0315577056 -0.0009468115 0.4747896754 0.0308713561 -0.0011268535 0.5001676017 0.0303172978 0.0021964587 0.0114427190 0.0360672383 -0.0003002499 0.0182619420 0.0393211341 -0.0007721420 0.0281826319 0.0412275261 -0.0007946905 0.0482207453 0.0400072811 -0.0011310118 0.0603703166 0.0388330273 -0.0003628144 0.0767351912 0.0381369590 -0.0002612506 0.0910808822 0.0389021936 -0.0007389812 0.1117470230 0.0366765250 -0.0002935921 0.1303537793 0.0384760344 -0.0005764642 0.1458140763 0.0385939222 -0.0003018606 0.1673599399 0.0382112525 -0.0005404615 0.1918344953 0.0365454691 -0.0003210600 0.2125443265 0.0370019844 -0.0009329960 0.2416242814 0.0375369624 0.0010230265 0.2729873115 0.0375755088 -0.0008138624 0.3087507950 0.0372960357 0.0001098959 0.3447716758 0.0381191351 -0.0004672754 0.3925224734 0.0389606176 -0.0006759640 0.4249980616 0.0369391254 -0.0007616742 0.4742540669 0.0365357852 -0.0009484607 0.5001435801 0.0358541788 0.0019641734 0.0084409110 0.0395217952 0.0001137154 0.0143926900 0.0436156176 -0.0009944101 0.0233017370 0.0452901902 -0.0006805837 0.0412541493 0.0435163135 -0.0007985377 0.0607072545 0.0434922259 -0.0006747141 0.0760973403 0.0427691216 -0.0002950924 0.0937803187 0.0440943483 -0.0006320548 0.1071888705 0.0429310700 -0.0008698181 0.1275983472 0.0431875779 -0.0009048013 0.1454448862 0.0432638967 -0.0008267998 0.1645158861 0.0437853068 -0.0001935503 0.1915851519 0.0423799171 0.0002154844 0.2129618553 0.0432454556 -0.0005541127 0.2412439306 0.0424527497 0.0014205654 0.2729143467 0.0430935421 -0.0006884653 0.3084947924 0.0427751874 -0.0002335120 0.3430985395 0.0430104122 -0.0005750925 0.3920979642 0.0439422868 -0.0002395095 0.4274672063 0.0424004257 -0.0006373592 0.4742184922 0.0419511121 -0.0010787080 0.5001982556 0.0413291534 0.0019590201 0.0089008903 0.0448323136 -0.0003646261 0.0162212864 0.0488136699 -0.0007604013 0.0273251976 0.0488176733 -0.0005819414 0.0455430886 0.0479596819 -0.0010944740 0.0597788277 0.0482376506 -0.0005672096 0.0757728416 0.0475118921 -0.0004143490 0.0919057945 0.0483919285 -0.0007664427 0.1114423799 0.0462836291 -0.0003855701 0.1294380565 0.0476179807 -0.0003952635 0.1448755270 0.0482014695 -0.0006124267 0.1653455407 0.0478837152 0.0001555860 0.1918237404 0.0472856801 -0.0001185232 0.2127758272 0.0478589894 -0.0005989223 0.2415580175 0.0478292600 0.0017918169 0.2728870675 0.0484240889 -0.0007221410 0.3083025414 0.0478719684 -0.0001503288 0.3443757120 0.0481731449 -0.0009698545 0.3923230858 0.0489762983 -0.0004082340 0.4250766565 0.0474333209 -0.0005604007 0.4745053976 0.0472479627 -0.0009691584 0.5002135979 0.0468191464 0.0019573603 0.0089650248 0.0502601964 -0.0005774260 0.0156915284 0.0539569466 -0.0006057334 0.0245648634 0.0532056292 -0.0004736319 0.0438421556 0.0530317481 -0.0004411097 0.0603932787 0.0532449504 -0.0006963652 0.0768768834 0.0521308060 -0.0003772776 0.0943825497 0.0530200045 -0.000770
[...]
      <PointData Scalars="smoothLength">
        <DataArray type="Float32" Name="smoothLength" format="ascii">
 0.0065000000 0.0065000000 0.0065000000 0.0065000000 0.0065000000 0.0065000000 0.0065000000 0.0065000000 0.0065000000 0.0065000000 0.0065000000 0.0065000000 0.0065000000 0.0065000000 0.0065000000 0.0065000000 0.0065000000 0.0065000000 0.0065000000 0.0065000000 0.0065000000 0.0065000000 0.0065000000 0.0065000000 0.0065000000 0.0065000000 0.0065000000 0.0065000000 0.0065000000 0.0065000000 0.0065000000 0.0065000000 0.0065000000 0.0065000000 0.0065000000 0.0065000000 0.0065000000 0.0065000000 0.0065000000 0.0065000000 0.0065000000 0.0065000000 0.0065000000 0.0065000000 0.0065000000 0.0065000000 0.0065000000 0.0065000000 0.0065000000 0.0065000000 0.0065000000 0.0065000000 0.0065000000 0.0065000000 0.0065000000 0.0065000000 0.0065000000 0.0065000000 0.0065000000 0.0065000000 0.0065000000 0.0065000000 0.0065000000 0.0065000000 0.0065000000 0.0065000000 0.0065000000 0.0065000000 0.0065000000 0.0065000000 0.0065000000 0.0065000000 0.0065000000 0.0065000000 0.0065000000 0.0065000000 0.0065000000 0.0065000000 0.0065000000 0.0065000000 0.0065000000 0.0065000000 0.0065000000 0.0065000000 0.0065000000 0.0065000000 0.0065000000 0.0065000000 0.0065000000 0.0065000000 0.0065000000 0.0065000000 0.0065000000 0.0065000000 0.0065000000 0.0065000000 0.0065000000 0.0065000000 0.0065000000 0.0065000000 0.0065000000 0.0065000000 0.0065000000 0.0065000000 0.0065000000 0.0065000000 0.0065000000 0.0065000000 0.0065000000 0.0065000000 0.0065000000 0.0065000000 0.0065000000 0.0065000000 0.0065000000 0.0065000000 0.0065000000 0.0065000000 0.0065000000 0.0065000000 0.0065000000 0.0065000000 0.0065000000 0.0065000000 0.0065000000 0.0065000000 0.0065000000 0.0065000000 0.0065000000 0.0065000000 0.0065000000 0.0065000000 0.0065000000 0.0065000000 0.0065000000 0.0065000000 0.0065000000 0.0065000000 0.0065000000 0.0065000000 0.0065000000 0.0065000000 0.0065000000 0.0065000000 0.0065000000 0.0065000000 0.0065000000 0.0065000000 0.0065000000 0.0065000000 0.0065000000 0.0065000000 0.0065000000 0.0065000000 0.0065000000 0.0065000000 0.0065000000 0.0065000000 0.0065000000 0.0065000000 0.0065000000 0.0065000000 0.0065000000 0.0065000000 0.0065000000 0.0065000000 0.0065000000 0.0065000000 0.0065000000 0.0065000000 0.0065000000 0.0065000000 0.0065000000 0.0065000000 0.0065000000 0.0065000000 0.0065000000 0.0065000000 0.0065000000 0.0065000000 0.0065000000 0.0065000000 0.0065000000 0.0065000000 0.0065000000 0.0065000000 0.0065000000 0.0065000000 0.0065000000 0.0065000000 0.0065000000 0.0065000000 0.0065000000 0.0065000000 0.0065000000 0.0065000000 0.0065000000 0.0065000000 0.0065000000 0.0065000000 0.0065000000 0.0065000000 0.0065000000 0.0065000000 0.0065000000 0.0065000000 0.0065000000 0.0065000000 0.0065000000 0.0065000000 0.0065000000 0.0065000000 0.0065000000 0.0065000000 0.0065000000 0.0065000000 0.0065000000 0.0065000000 0.0065000000 0.0065000000 0.0065000000 0.0065000000 0.0065000000 0.0065000000 0.0065000000 0.0065000000 0.0065000000 0.0065000000 0.0065000000 0.0065000000 0.0065000000 0.0065000000 0.0065000000 0.0065000000 0.0065000000 0.0065000000 0.0065000000 0.0065000000 0.0065000000 0.0065000000 0.0065000000 0.0065000000 0.0065000000 0.0065000000 0.0065000000 0.0065000000 0.0065000000 0.0065000000 0.0065000000 0.0065000000 0.0065000000 0.0065000000 0.0065000000 0.0065000000 0.0065000000 0.0065000000 0.0065000000 0.0065000000 0.0065000000 0.0065000000 0.0065000000 0.0065000000 0.0065000000 0.0065000000 0.0065000000 0.0065000000 0.0065000000 0.0065000000 0.0065000000 0.0065000000 0.0065000000 0.0065000000 0.0065000000 0.0065000000 0.0065000000 0.0065000000 0.0065000000 0.0065000000 0.0065000000 0.0065000000 0.0065000000 0.0065000000 0.0065000000 0.0065000000 0.0065000000 0.0065000000 0.0065000000 0.0065000000 0.0065000000 0.0065000000 0.0065000000 0.0065000000 0.0065000000 0.0065000000 0.0065000000 0.0065000000 0.0065000000 0.0065000000 0.0065000000 0.0065000000 0.0065000000 0.0065000000 0.0065000000 0.0065000000 0.0065000000 0.0065000000 0.0065000000 0.0065000000 0.0065000000 0.0065000000 0.0065000000 0.0065000000 0.0065000000 0.0065000000 0.0065000000 0.0065000000 0.0065000000 0.0065000000 0.0065000000 0.0065000000 0.0065000000 0.0065000000 0.0065000000 0.0065000000 0.0065000000 0.0065000000 0.0065000000 0.0065000000 0.0065000000 0.0065000000 0.0065000000 0.0065000000 0.0065000000 0.0065000000 0.0065000000 0.0065000000 0.0065000000 0.0065000000 0.0065000000 0.0065000000 0.0065000000 0.0065000000 0.0065000000 0.0065000000 0.0065000000 0.0065000000 0.0065000000 0.0065000000 0.0065000000 0.0065000000 0.0065000000 0.0065000000 0.0065000000 0.0065000000 0.0065000000 0.0065000000 0.0065000000 0.0065000000 0.0065000000 0.0065000000 0.0065000000 0.0065000000 0.0065000000 0.0065000000 0.0065000000 0.0065000000 0.0065000000 0.0065000000 0.0065000000 0.0065000000 0.0065000000 0.0065000000 0.0065000000 0.0065000000 0.0065000000 0.0065000000 0.0065000000 0.0065000000 0.0065000000 0.0065000000 0.0065000000 0.0065000000 0.0065000000 0.0065000000 0.0065000000 0.0065000000 0.0065000000 0.0065000000 0.0065000000 0.0065000000 0.0065000000 0.0065000000 0.0065000000 0.0065000000 0.0065000000 0.0065000000 0.0065000000 0.0065000000 0.0065000000 0.0065000000 0.0065000000 0.0065000000 0.0065000000 0.0065000000 0.0065000000 0.0065000000 0.0065000000 0.0065000000 0.0065000000 0.0065000000 0.0065000000 0.0065000000 0.0065000000 0.0065000000 0.0065000000 0.0065000000 0.0065000000 0.0065000000 0.0065000000 0.0065000000 0.0065000000 0.0065000000 0.0065000000 0.0065000000 0.0065000000 0.0065000000 0.0065000000 0.0065000000 0.0065000000 0.0065000000 0.0065000000 0.0065000000 0.0065000000 0.0065000000 0.0065000000 0.0065000000 0.0065000000 0.0065000000 0.0065000000 0.0065000000 0.0065000000 0.0065000000 0.0065000000 0.0065000000 0.0065000000 0.0065000000 0.0065000000 0.0065000000 0.0065000000 0.0065000000 0.0065000000 0.0065000000 0.0065000000 0.0065000000 0.0065000000 0.0065000000 0.0065000000 0.0065000000 0.0065000000 0.0065000000 0.0065000000 0.0065000000 0.0065000000 0.0065000000 0.0065000000 0.0065000000 0.0065000000 0.0065000000 0.0065000000 0.0065000000 0.0065000000 0.0065000000 0.0065000000 0.0065000000 0.0065000000 0.0065000000 0.0065000000 0.0065000000 0.0065000000 0.0065000000 0.0065000000 0.0065000000 0.0065000000 0.0065000000 0.0065000000 0.0065000000 0.0065000000 0.0065000000 0.0065000000 0.0065000000 0.0065000000 0.0065000000 0.0065000000 0.0065000000 0.0065000000 0.0065000000 0.0065000000 0.0065000000 0.0065000000 0.0065000000 0.0065000000 0.0065000000 0.0065000000 0.0065000000 0.0065000000 0.0065000000 0.0065000000 0.0065000000 0.0065000000 0.0065000000 0.0065000000 0.0065000000 0.0065000000 0.0065000000 0.0065000000 0.0065000000 0.0065000000 0.0065000000 0.0065000000 0.0065000000 0.0065000000 0.0065000000 0.0065000000 0.0065000000 0.0065000000 0.0065000000 0.0065000000 0.0065000000 0.0065000000 0.0065000000 0.0065000000 0.0065000000 0.0065000000 0.0065000000 0.0065000000 0.0065000000 0.0065000000 0.0065000000 0.0065000000 0.0065000000 0.0065000000 0.0065000000 0.0065000000 0.0065000000 0.0065000000 0.0065000000 0.0065000000 0.0065000000 0.0065000000 0.0065000000 0.0065000000 0.0065000000 0.0065000000 0.0065000000 0.0065000000 0.0065000000 0.0065000000 0.0065000000 0.0065000000 0.0065000000 0.0065000000 0.0065000000 0.0065000000 0.0065000000 0.0065000000 0.0065000000 0.0065000000 0.0065000000 0.0065000000 0.0065000000 0.0065000000 0.0065000000 0.0065000000 0.0065000000 0.0065000000 0.0065000000 0.0065000000 0.0065000000 0.0065000000 0.0065000000 0.0065000000 0.0065000000 0.0065000000 0.0065000000 0.0065000000 0.0065000000 0.0065000000 0.0065000000 0.0065000000 0.0065000000 0.0065000000 0.0065000000 0.0065000000 0.0065000000 0.0065000000 0.0065000000 0.0065000000 0.0065000000 0.0065000000 0.0065000000 0.0065000000 0.0065000000 0.0065000000 0.0065000000 0.0065000000 0.0065000000 0.0065000000 0.0065000000 0.0065000000 0.0065000000 0.0065000000 0.0065000000 0.0065000000 0.0065000000 0.0065000000 0.0065000000 0.0065000000 0.0065000000 0.0065000000 0.0065000000 0.0065000000 0.0065000000 0.0065000000 0.0065000000 0.0065000000 0.0065000000 0.0065000000 0.0065000000 0.0065000000 0.0065000000 0.0065000000 0.0065000000 0.0065000000 0.0065000000 0.0065000000 0.0065000000 0.0065000000 0.0065000000 0.0065000000 0.0065000000 0.0065000000 0.0065000000 0.0065000000 0.0065000000 0.0065000000 0.0065000000 0.0065000000 0.0065000000 0.0065000000 0.0065000000 0.0065000000 0.0065000000 0.0065000000 0.0065000000 0.0065000000 0.0065000000 0.0065000000 0.0065000000 0.0065000000 0.0065000000 0.0065000000 0.0065000000 0.0065000000 0.0065000000 0.0065000000 0.0065000000 0.0065000000 0.0065000000 0.0065000000 0.0065000000 0.0065000000 0.0065000000 0.0065000000 0.0065000000 0.0065000000 0.0065000000 0.0065000000 0.0065000000 0.0065000000 0.0065000000 0.0065000000 0.0065000000 0.0065000000 0.0065000000 0.0065000000 0.0065000000 0.0065000000 0.0065000000 0.0065000000 0.0065000000 0.0065000000 0.0065000000 0.0065000000 0.0065000000 0.0065000000 0.0065000000 0.0065000000 0.0065000000 0.0065000000 0.0065000000 0.0065000000 0.0065000000 0.0065000000 0.0065000000 0.0065000000 0.0065000000 0.0065000000 0.0065000000 0.0065000000 0.0065000000 0.0065000000 0.0065000000 0.0065000000 0.0065000000 0.0065000000 0.0065000000 0.0065000000 0.0065000000 0.0065000000 0.0065000000 0.0065000000 0.0065000000 0.0065000000 0.0065000000 0.0065000000 0.0065000000 0.0065000000 0.0065000000 0.0065000000 0.0065000000 0.0065000000 0.0065000000 0.0065000000 0.0065000000 0.0065000000 0.0065000000 0.0065000000 0.0065000000 0.0065000000 0.0065000000 0.0065000000 0.0065000000 0.0065000000 0.0065000000 0.0065000000 0.0065000000 0.0065000000 0.0065000000 0.0065000000 0.0065000000 0.0065000000 0.0065000000 0.0065000000 0.0065000000 0.0065000000 0.0065000000 0.0065000000 0.0065000000 0.0065000000 0.0065000000 0.0065000000 0.0065000000 0.0065000000 0.0065000000 0.0065000000 0.0065000000 0.0065000000 0.0065000000 0.0065000000 0.0065000000 0.0065000000 0.0065000000 0.0065000000 0.0065000000 0.0065000000 0.0065000000 0.0065000000 0.0065000000 0.0065000000 0.0065000000 0.0065000000 0.0065000000 0.0065000000 0.0065000000 0.0065000000 0.0065000000 0.0065000000 0.0065000000 0.0065000000 0.0065000000 0.0065000000 0.0065000000 0.0065000000 0.0065000000 0.0065000000 0.0065000000 0.0065000000 0.0065000000 0.0065000000 0.0065000000 0.0065000000 0.0065000000 0.0065000000 0.0065000000 0.0065000000 0.0065000000 0.0065000000 0.0065000000 0.0065000000 0.0065000000 0.0065000000 0.0065000000 0.0065000000 0.0065000000 0.0065000000 0.0065000000 0.0065000000 0.0065000000 0.0065000000 0.0065000000 0.0065000000 0.0065000000 0.0065000000 0.0065000000 0.0065000000 0.0065000000 0.0065000000 0.0065000000 0.0065000000 0.0065000000 0.0065000000 0.0065000000 0.0065000000 0.0065000000 0.0065000000 0.0065000000 0.0065000000 0.0065000000 0.0065000000 0.0065000000 0.0065000000 0.0065000000 0.0065000000 0.0065000000 0.0065000000 0.0065000000 0.0065000000 0.0065000000 0.0065000000 0.0065000000 0.0065000000 0.0065000000 0.0065000000 0.0065000000 0.0065000000 0.0065000000 0.0065000000 0.0065000000 0.0065000000 0.0065000000 0.0065000000 0.0065000000 0.0065000000 0.0065000000 0.0065000000 0.0065000000 0.0065000000 0.0065000000 0.0065000000 0.0065000000 0.0065000000 0.0065000000 0.0065000000 0.0065000000 0.0065000000 0.0065000000 0.0065000000 0.0065000000 0.0065000000 0.0065000000 0.0065000000 0.0065000000 0.0065000000 0.0065000000 0.0065000000 0.0065000000 0.0065000000 0.0065000000 0.0065000000 0.0065000000 0.0065000000 0.0065000000 0.0065000000 0.0065000000 0.0065000000 0.0065000000 0.0065000000 0.0065000000 0.0065000000 0.0065000000 0.0065000000 0.0065000000 0.0065000000 0.0065000000 0.0065000000 0.0065000000 0.0065000000 0.0065000000 0.0065000000 0.0065000000 0.0065000000 0.0065000000 0.0065000000 0.0065000000 0.0065000000 0.0065000000 0.0065000000 0.0065000000 0.0065000000 0.0065000000 0.0065000000 0.0065000000 0.0065000000 0.0065000000 0.0065000000 0.0065000000 0.0065000000 0.0065000000 0.0065000000 0.0065000000 0.0065000000 0.0065000000 0.0065000000 0.0065000000 0.0065000000 0.0065000000 0.0065000000 0.0065000000 0.0065000000 0.0065000000 0.0065000000 0.0065000000 0.0065000000 0.0065000000 0.0065000000 0.0065000000 0.0065000000 0.0065000000 0.0065000000 0.0065000000 0.0065000000 0.0065000000 0.0065000000 0.0065000000 0.0065000000 0.0065000000 0.0065000000 0.0065000000 0.0065000000 0.0065000000 0.0065000000 0.0065000000 0.0065000000 0.0065000000 0.0065000000 0.0065000000 0.0065000000 0.0065000000 0.0065000000 0.0065000000 0.0065000000 0.0065000000 0.0065000000 0.0065000000 0.0065000000 0.0065000000 0.0065000000 0.0065000000 0.0065000000 0.0065000000 0.0065000000 0.0065000000 0.0065000000 0.0065000000 0.0065000000 0.0065000000 0.0065000000 0.0065000000 0.0065000000 0.0065000000 0.0065000000 0.0065000000 0.0065000000 0.0065000000 0.0065000000 0.0065000000 0.0065000000 0.0065000000 0.0065000000 0.0065000000 0.0065000000 0.0065000000 0.0065000000 0.0065000000 0.0065000000 0.0065000000 0.0065000000 0.0065000000 0.0065000000 0.0065000000 0.0065000000 0.0065000000 0.0065000000 0.0065000000 0.0065000000 0.0065000000 0.0065000000 0.0065000000 0.0065000000 0.0065000000 0.0065000000 0.0065000000 0.0065000000 0.0065000000 0.0065000000 0.0065000000 0.0065000000 0.0065000000 0.0065000000 0.0065000000 0.0065000000 0.0065000000 0.0065000000 0.0065000000 0.0065000000 0.0065000000 0.0065000000 0.0065000000 0.0065000000 0.0065000000 0.0065000000 0.0065000000 0.0065000000 0.0065000000 0.0065000000 0.0065000000 0.0065000000 0.0065000000 0.0065000000 0.0065000000 0.0065000000 0.0065000000 0.0065000000 0.0065000000 0.0065000000 0.0065000000 0.0065000000 0.0065000000 0.0065000000 0.0065000000 0.0065000000 0.0065000000 0.0065000000 0.0065000000 0.0065000000 0.0065000000 0.0065000000 0.0065000000 0.0065000000 0.0065000000 0.0065000000 0.0065000000 0.0065000000 0.0065000000 0.0065000000 0.0065000000 0.0065000000 0.0065000000 0.0065000000 0.0065000000 0.0065000000 0.0065000000 0.0065000000 0.0065000000 0.0065000000 0.0065000000 0.0065000000 0.0065000000 0.0065000000 0.0065000000 0.0065000000 0.0065000000 0.0065000000 0.0065000000 0.0065000000 0.0065000000 0.0065000000 0.0065000000 0.0065000000 0.0065000000 0.0065000000 0.0065000000 0.0065000000 0.0065000000 0.0065000000 0.0065000000 0.0065000000 0.0065000000 0.0065000000 0.0065000000 0.0065000000 0.0065000000 0.0065000000 0.0065000000 0.0065000000 0.0065000000 0.0065000000 0.0065000000 0.0065000000 0.0065000000 0.0065000000 0.0065000000 0.0065000000 0.0065000000 0.0065000000 0.0065000000 0.0065000000 0.0065000000 0.0065000000 0.0065000000 0.0065000000 0.0065000000 0.0065000000 0.0065000000 0.0065000000 0.0065000000 0.0065000000 0.0065000000 0.0065000000 0.0065000000 0.0065000000 0.0065000000 0.0065000000 0.0065000000 0.0065000000 0.0065000000 0.0065000000 0.0065000000 0.0065000000 0.0065000000 0.0065000000 0.0065000000 0.0065000000 0.0065000000 0.0065000000 0.0065000000 0.0065000000 0.0065000000 0.0065000000 0.0065000000 0.0065000000 0.0065000000 0.0065000000 0.0065000000 0.0065000000 0.0065000000 0.0065000000 0.0065000000 0.0065000000 0.0065000000 0.0065000000 0.0065000000 0.0065000000 0.0065000000 0.0065000000 0.0065000000 0.0065000000 0.0065000000 0.0065000000 0.0065000000 0.0065000000 0.0065000000 0.0065000000 0.0065000000 0.0065000000 0.0065000000 0.0065000000 0.0065000000 0.0065000000 0.0065000000 0.0065000000 0.0065000000 0.0065000000 0.0065000000 0.0065000000 0.0065000000 0.0065000000 0.0065000000 0.0065000000 0.0065000000 0.0065000000 0.0065000000 0.0065000000 0.0065000000 0.0065000000 0.0065000000 0.0065000000 0.0065000000 0.0065000000 0.0065000000 0.0065000000 0.0065000000 0.0065000000 0.0065000000 0.0065000000 0.0065000000 0.0065000000 0.0065000000 0.0065000000 0.0065000000 0.0065000000 0.0065000000 0.0065000000 0.0065000000 0.0065000000 0.0065000000 0.0065000000 0.0065000000 0.0065000000 0.0065000000 0.0065000000 0.0065000000 0.0065000000 0.0065000000 0.0065000000 0.0065000000 0.0065000000 0.0065000000 0.0065000000 0.0065000000 0.0065000000 0.0065000000 0.0065000000 0.0065000000 0.0065000000 0.0065000000 0.0065000000 0.0065000000 0.0065000000 0.0065000000 0.0065000000 0.0065000000 0.0065000000 0.0065000000 0.0065000000 0.0065000000 0.0065000000 0.0065000000 0.0065000000 0.0065000000 0.0065000000 0.0065000000 0.0065000000 0.0065000000 0.0065000000 0.0065000000 0.0065000000 0.0065000000 0.0065000000 0.0065000000 0.0065000000 0.0065000000 0.0065000000 0.0065000000 0.0065000000 0.0065000000 0.0065000000 0.0065000000 0.0065000000 0.0065000000 0.0065000000 0.0065000000 0.0065000000 0.0065000000 0.0065000000 0.0065000000 0.0065000000 0.0065000000 0.0065000000 0.0065000000 0.0065000000 0.0065000000 0.0065000000 0.0065000000 0.0065000000 0.0065000000 0.0065000000 0.0065000000 0.0065000000 0.0065000000 0.0065000000 0.0065000000 0.0065000000 0.0065000000 0.0065000000 0.0065000000 0.0065000000 0.0065000000 0.0065000000 0.0065000000 0.0065000000 0.0065000000 0.0065000000 0.0065000000 0.0065000000 0.0065000000 0.0065000000 0.0065000000 0.0065000000 0.0065000000 0.0065000000 0.0065000000 0.0065000000 0.0065000000 0.0065000000 0.0065000000 0.0065000000 0.0065000000 0.0065000000 0.0065000000 0.0065000000 0.0065000000 0.0065000000 0.0065000000 0.0065000000 0.0065000000 0.0065000000 0.0065000000 0.0065000000 0.0065000000 0.0065000000 0.0065000000 0.0065000000 0.0065000000 0.0065000000 0.0065000000 0.0065000000 0.0065000000 0.0065000000 0.0065000000 0.0065000000 0.0065000000 0.0065000000 0.0065000000 0.0065000000 0.0065000000 0.0065000000 0.0065000000 0.0065000000 0.0065000000 0.0065000000 0.0065000000 0.0065000000 0.0065000000 0.0065000000 0.0065000000 0.0065000000 0.0065000000 0.0065000000 0.0065000000 0.0065000000 0.0065000000 0.0065000000 0.0065000000 0.0065000000 0.0065000000 0.0065000000 0.0065000000 0.0065000000 0.0065000000 0.0065000000 0.0065000000 0.0065000000 0.0065000000 0.0065000000 0.0065000000 0.0065000000 0.0065000000 0.0065000000 0.0065000000 0.0065000000 0.0065000000 0.0065000000 0.0065000000 0.0065000000 0.0065000000 0.0065000000 0.0065000000 0.0065000000 0.0065000000 0.0065000000 0.0065000000 0.0065000000 0.0065000000 0.0065000000 0.0065000000 0.0065000000 0.0065000000 0.0065000000 0.0065000000 0.0065000000 0.0065000000 0.0065000000 0.0065000000 0.0065000000 0.0065000000 0.0065000000 0.0065000000 0.0065000000 0.0065000000 0.0065000000 0.0065000000 0.0065000000 0.0065000000 0.0065000000 0.0065000000 0.0065000000 0.0065000000 0.0065000000 0.0065000000 0.0065000000 0.0065000000 0.0065000000 0.0065000000 0.0065000000 0.0065000000 0.0065000000 0.0065000000 0.0065000000 0.0065000000 0.0065000000 0.0065000000 0.0065000000 0.0065000000 0.0065000000 0.0065000000 0.0065000000 0.0065000000 0.0065000000 0.0065000000 0.0065000000 0.0065000000 0.0065000000 0.0065000000 0.0065000000 0.0065000000 0.0065000000 0.0065000000 0.0065000000 0.0065000000 0.0065000000 0.0065000000 0.0065000000 0.0065000000 0.0065000000 0.0065000000 0.0065000000 0.0065000000 0.0065000000 0.0065000000 0.0065000000 0.0065000000 0.0065000000 0.0065000000 0.0065000000 0.0065000000 0.0065000000 0.0065000000 0.0065000000 0.0065000000 0.0065000000 0.0065000000 0.0065000000 0.0065000000 0.0065000000 0.0065000000 0.0065000000 0.0065000000 0.0065000000 0.0065000000 0.0065000000 0.0065000000 0.0065000000 0.0065000000 0.0065000000 0.0065000000 0.0065000000 0.0065000000 0.0065000000 0.0065000000 0.0065000000 0.0065000000 0.0065000000 0.0065000000 0.0065000000 0.0065000000 0.0065000000 0.0065000000 0.0065000000 0.0065000000 0.0065000000 0.0065000000 0.0065000000 0.0065000000 0.0065000000 0.0065000000 0.0065000000 0.0065000000 0.0065000000 0.0065000000 0.0065000000 0.0065000000 0.0065000000 0.0065000000 0.0065000000 0.0065000000 0.0065000000 0.0065000000 0.0065000000 0.006500000