<?xml version="1.0"?>
<VTKFile type="UnstructuredGrid" version="0.1" byte_order="LittleEndian">
  <UnstructuredGrid>
    <FieldData>
      <DataArray type="Float32" Name="TIME"  NumberOfTuples="1" format="ascii"> 1.2991052309 </DataArray>
      <DataArray type="Int32"   Name="STEP"  NumberOfTuples="1" format="ascii"> 17420 </DataArray>
    </FieldData>
    <Piece NumberOfPoints="18081" NumberOfCells="18081">
      <Points>
        <DataArray type="Float32" NumberOfComponents="3" format="ascii">
 0.0668691735 0.0293131278 0.0049047403 0.0702416956 0.0007078555 0.0070158108 0.0344534718 0.0062014776 0.0323005983 0.1292711454 0.0061815326 0.0010407625 0.1080241637 0.0088561093 0.0050365264 0.1122166933 0.0167100232 0.0000738590 0.3489808652 0.0092630338 -0.0010134595 0.3808601931 0.0160469782 0.0000176174 0.1702603895 0.0058108910 0.0175346800 0.0940258903 0.0110520413 0.0152045564 0.2499677703 0.0220720079 0.0058548226 0.3722034829 0.0364913170 0.0125164396 0.4231279290 0.0307882742 0.0016609205 0.3915467312 0.0455520991 0.0119518397 0.2936338000 0.0297473447 0.0091935603 0.4447152686 0.0315946219 0.0001206696 0.3108713599 0.0026364849 0.0061296179 0.2827051495 0.0121203666 0.0075258289 0.0807081348 0.0145626754 0.0235523889 0.2245632737 0.0071288824 0.0093450735 0.1504200485 0.0313973540 0.0197081965 0.0670798720 0.0134485344 0.0001079198 0.0677723210 0.0001519827 0.0001648012 0.0009555614 0.0033497078 0.0249929068 0.0372178428 0.0194584048 0.0231450553 0.2276011137 0.0032490277 0.0001765811 0.3023290709 0.0238756946 0.0010173353 0.2972686523 0.0193218063 0.0003926042 0.4094128998 0.0063621454 0.0000923296 0.1599902093 0.0079764321 0.0180343340 0.4759341928 0.0315183091 0.0003223759 0.4108156642 0.0324240593 0.0008150447 0.4300795563 0.0419333676 -0.0002764582 0.4553389601 0.0517750268 0.0176821512 0.4304531940 0.0199851231 0.0132558174 0.3148453640 0.0163548846 0.0067362001 0.4237718906 0.0111127793 0.0046914985 0.2517580610 0.0237274171 0.0086240431 0.0713359638 0.0140309406 0.0181360643 0.1077624442 0.0059845691 0.0157291528 0.0384729959 0.0074458133 0.0213891947 0.2638799244 0.0422825303 0.0113564346 0.0916929222 0.0353696835 0.0000111344 0.0830171834 0.0005558111 0.0059603341 0.0825795878 0.0008977521 -0.0001393539 0.0622797220 0.0255565357 0.0099163857 0.0961854920 0.0039120141 0.0051054992 0.3125739570 0.0191432774 -0.0005387982 0.3808359283 0.0270712072 -0.0013477343 0.1675567116 0.0255325039 0.0180336835 0.1591223764 0.0282830504 0.0179611559 0.3148306403 0.0208047009 0.0051264196 0.4837796218 0.0147434648 0.0032234876 0.4449964665 0.0405998316 0.0091388496 0.4509206466 0.0461827490 0.0107802008 0.2969402876 0.0329038521 0.0099878853 0.4294686975 0.0358993824 0.0113798864 0.2143375330 0.0004565054 0.0046297316 0.2068652788 0.0101154457 0.0080725013 0.1975030061 0.0107145530 0.0100472367 0.3933231753 0.0002421013 0.0148545949 0.3046382235 0.0180933869 0.0099663811 0.1772040815 0.0241874576 0.0167595751 0.0637371550 0.0240254219 0.0032480016 0.0957454863 0.0352643354 0.0013471585 0.0520275450 0.0085722407 0.0213455977 0.0996173224 0.0062200566 0.0091837996 0.2258719065 0.0160639019 0.0000427034 0.3368416564 0.0082459522 -0.0009372183 0.3735088551 0.0172998233 -0.0011242723 0.2397437765 0.0226201326 0.0056185316 0.4378400087 0.0017369928 -0.0008282455 0.4991102238 0.0323733720 0.0395295079 0.4508354939 0.0496248916 0.0072055612 0.3852817944 0.0430847857 0.0090320336 0.4696197375 0.0418541055 0.0145269639 0.4341953908 0.0297512982 0.0146797379 0.1830838431 0.0193910516 0.0124480306 0.4986090186 0.0342988889 0.0331105106 0.0721094596 0.0308095644 0.0165808179 0.1483583425 0.0262435853 0.0136901502 0.0551785369 0.0330663913 0.0269970845 0.4007430956 0.0405865761 0.0130528293 0.2683570701 0.0284609596 0.0109768844 0.0710717181 0.0259024707 -0.0004166266 0.0936308872 0.0005354351 -0.0005160225 0.1062962447 0.0002880250 0.0065372576 0.0990078015 0.0007525519 0.0003896269 0.0915145305 0.0202332722 0.0000577165 0.1860820129 0.0345678169 0.0008450478 0.3100027834 0.0315579377 -0.0005262518 0.1945723033 0.0207617246 0.0097473322 0.1741900801 0.0355816188 0.0153545652 0.4332044162 0.0142779364 0.0024523502 0.4995758966 0.0430804802 0.0063064803 0.3981733800 0.0390151143 0.0090380668 0.4279794505 0.0404551822 0.0115256606 0.4243947768 0.0477878735 0.0140142104 0.2872982716 0.0348182870 0.0095664134 0.1140914470 0.0283649501 0.0201974821 0.2649249044 0.0184214806 0.0064148961 0.1331363550 0.0295483794 0.0184686627 0.3775152804 0.0015278555 0.0158670591 0.2198679154 0.0304709591 0.0090544209 0.4149356698 0.0438066253 0.0132473241 0.0664677744 0.0208182538 0.0000250789 0.0602694729 0.0327403010 0.0073730270 0.0707843374 0.0036579268 0.0218475995 0.0666660982 0.0131119893 0.0073352007 0.0925332132 0.0023534564 0.0046649044 0.2606728613 0.0286629218 -0.0006183472 0.3668978373 0.0160031383 -0.0015288347 0.4249878891 0.0101350187 -0.0005898670 0.2026336980 0.0329040713 0.0076121999 0.2876384600 0.0200863886 0.0025260479 0.3774857806 0.0319153128 0.0115608996 0.3931761884 0.0496125737 0.0112185775 0.3192481190 0.0607355590 0.0089381413 0.4989482925 0.0517561892 0.0106145344 0.4268856694 0.0335297360 0.0035533039 0.1278589717 0.0173564626 0.0177997788 0.2467980974 0.0275281892 0.0028012081 0.0250094407 0.0180426896 0.0256789691 0.0494795085 0.0432753275 0.0287642722 0.2324804731 0.0416804597 0.0089877710 0.2544291301 0.0297920534 0.0098272534 0.0943100171 0.0469077612 -0.0000818327 0.1069681366 0.0353520784 0.0038839134 0.0853489636 0.0018027102 0.0014151015 0.0431194350 0.0216692271 0.0172843528 0.1178308609 0.0407975079 0.0118125384 0.2593185767 0.0170632674 -0.0004440546 0.4241444303 0.0176016442 -0.0013131144 0.2065363551 0.0358657039 0.0046786030 0.2683393643 0.0239829561 0.0006993565 0.4906367943 0.0330536647 0.0044997972 0.4135647454 0.0193456354 0.0077151004 0.4442675413 0.0533638173 0.0099126294 0.3862122734 0.0500596250 0.0116225126 0.4452236598 0.0496336625 0.0143710821 0.2189644457 0.0379403666 0.0073576236 0.2275017299 0.0428715585 0.0080818434 0.1140598262 0.0244140367 0.0146092851 0.1588114106 0.0245275304 0.0182702152 0.0021033911 0.0025452740 0.0501844534 0.4287115695 0.0547906846 0.0148865770 0.0700339209 0.0377445828 0.0261981280 0.0953982345 0.0412725550 -0.0007995604 0.0396302317 0.0245026477 0.0254697838 0.0980344172 0.0441276215 0.0102388881 0.0620391260 0.0044398521 0.0146787348 0.1027227881 0.0325479688 -0.0001432362 0.1958248676 0.0420907369 0.0004067786 0.3946708470 0.0261944813 -0.0008063516 0.2759250668 0.0358423761 0.0040942193 0.2677207236 0.0328828306 0.0033155735 0.1937982362 0.0346688094 0.0081083233 0.3815695256 0.0520646882 0.0114184077 0.4292261641 0.0481260866 0.0069677823 0.3998554425 0.0510722957 0.0120047685 0.2627619805 0.0304574399 0.0052966174 0.4284171006 0.0611671144 0.0132798667 0.2186418053 0.0436568652 0.0072977521 0.0457074348 0.0288376633 0.0231434982 0.0105481405 0.0127557507 0.0240015915 0.4600764023 0.0559897873 0.0201342582 0.1011319765 0.0487636652 0.0208906153 0.1607326440 0.0461469742 0.0228478541 0.1062444172 0.0449551716 -0.0001410081 0.1086798855 0.0631960438 0.0077602860 0.0552494049 0.0057405362 0.0145068283 0.0685638037 0.0071136264 0.0028191530 0.0681290903 0.0292413659 0.0102017304 0.2943269329 0.0345450910 -0.0002544981 0.3718715756 0.0238191047 0.0013470224 0.2947845542 0.0257252869 0.0014349559 0.3185812536 0.0268087173 0.0068518991 0.1864640564 0.0354039517 0.0104336062 0.3405458817 0.0389621703 0.0068880770 0.4942951539 0.0505344221 0.0226117157 0.3860725350 0.0659467113 0.0091789481 0.4495160400 0.0617942676 0.0152415481 0.2151079655 0.0530767002 0.0061945420 0.2641677480 0.0438941323 0.0051434055 0.1845572653 0.0458340691 0.0129621802 0.2135711772 0.0339750849 0.0088070256 0.2322889726 0.0449333925 0.0086433742 0.3457254851 0.0651630071 0.0098642384 0.0395759524 0.0358114549 0.0462293409 0.1084503829 0.0506376360 0.0001415242 0.1212833103 0.0501773013 0.0012435986 0.1019939062 0.0330912903 0.0045969559 0.0814571584 0.0306574415 0.0074013714 0.0335585833 0.0123195028 0.0140633130 0.2965725622 0.0448902931 -0.0005500663 0.4013221673 0.0330036795 -0.0011104843 0.3919351474 0.0311059496 0.0002375471 0.4113918179 0.0226907337 0.0021060738 0.3010270932 0.0297507412 0.0053529981 0.4523013126 0.0439427760 0.0038664910 0.4095975401 0.0680858863 0.0104860832 0.4830255757 0.0616820430 0.0186815901 0.4684953092 0.0515496190 0.0073100818 0.3247744304 0.0653082049 0.0090092578 0.2396406066 0.0551625138 0.0084152027 0.1224948151 0.0692064474 0.0204513031 0.1535085513 0.0468237548 0.0220075026 0.1648135099 0.0506580650 0.0207010086 0.0263131204 0.0666927259 0.0425903532 0.0715895524 0.0607369157 0.0250463253 0.1153555201 0.0802361585 -0.0006825130 0.1104946684 0.0814681375 0.0040508385 0.1003375345 0.0905470225 -0.0000936591 0.1083344750 0.0406656726 0.0079671978 0.0478297644 0.0552052049 0.0323236036 0.2797566102 0.0514802606 -0.0000870225 0.3167466717 0.0407652354 0.0027745409 0.2355395392 0.0484020211 0.0004952254 0.1472296754 0.0435994736 0.0163059834 0.4313294044 0.0221733140 -0.0003124403 0.4075721234 0.0631572203 0.0100801282 0.4342188081 0.0618898285 0.0132064363 0.4428501783 0.0642041315 0.0103084109 0.3789621339 0.0697555721 0.0087034651 0.2096741456 0.0439690039 0.0034241176 0.4838306818 0.0579808069 0.0182449153 0.1495665835 0.0591613243 0.0227171442 0.0334657405 0.0569817493 0.0495985974 0.1599306746 0.0533362910 0.0199240321 0.0250525931 0.0721184143 0.0269458044 0.1159139915 0.0559190677 0.0208921420 0.0882179872 0.0632959428 0.0071181900 0.1045647808 0.0664779602 0.0063215246 0.0810711648 0.0867523725 0.0118702222 0.1124668731 0.0298067842 0.0044720510 0.1058330242 0.0521800699 0.0101685989 0.2955984830 0.0508971373 -0.0008451580 0.3426443049 0.0461436458 0.0026664072 0.2625926436 0.0430861629 -0.0005740130 0.1149238145 0.0458171901 0.0152821446 0.3576045896 0.0548796405 0.0022375652 0.3836774110 0.0674219506 0.0070506954 0.4936491991 0.0775268612 0.017
[...]
      <PointData Scalars="smoothLength">
        <DataArray type="Float32" Name="smoothLength" format="ascii">
 0.0065000000 0.0065000000 0.0065000000 0.0065000000 0.0065000000 0.0065000000 0.0065000000 0.0065000000 0.0065000000 0.0065000000 0.0065000000 0.0065000000 0.0065000000 0.0065000000 0.0065000000 0.0065000000 0.0065000000 0.0065000000 0.0065000000 0.0065000000 0.0065000000 0.0065000000 0.0065000000 0.0065000000 0.0065000000 0.0065000000 0.0065000000 0.0065000000 0.0065000000 0.0065000000 0.0065000000 0.0065000000 0.0065000000 0.0065000000 0.0065000000 0.0065000000 0.0065000000 0.0065000000 0.0065000000 0.0065000000 0.0065000000 0.0065000000 0.0065000000 0.0065000000 0.0065000000 0.0065000000 0.0065000000 0.0065000000 0.0065000000 0.0065000000 0.0065000000 0.0065000000 0.0065000000 0.0065000000 0.0065000000 0.0065000000 0.0065000000 0.0065000000 0.0065000000 0.0065000000 0.0065000000 0.0065000000 0.0065000000 0.0065000000 0.0065000000 0.0065000000 0.0065000000 0.0065000000 0.0065000000 0.0065000000 0.0065000000 0.0065000000 0.0065000000 0.0065000000 0.0065000000 0.0065000000 0.0065000000 0.0065000000 0.0065000000 0.0065000000 0.0065000000 0.0065000000 0.0065000000 0.0065000000 0.0065000000 0.0065000000 0.0065000000 0.0065000000 0.0065000000 0.0065000000 0.0065000000 0.0065000000 0.0065000000 0.0065000000 0.0065000000 0.0065000000 0.0065000000 0.0065000000 0.0065000000 0.0065000000 0.0065000000 0.0065000000 0.0065000000 0.0065000000 0.0065000000 0.0065000000 0.0065000000 0.0065000000 0.0065000000 0.0065000000 0.0065000000 0.0065000000 0.0065000000 0.0065000000 0.0065000000 0.0065000000 0.0065000000 0.0065000000 0.0065000000 0.0065000000 0.0065000000 0.0065000000 0.0065000000 0.0065000000 0.0065000000 0.0065000000 0.0065000000 0.0065000000 0.0065000000 0.0065000000 0.0065000000 0.0065000000 0.0065000000 0.0065000000 0.0065000000 0.0065000000 0.0065000000 0.0065000000 0.0065000000 0.0065000000 0.0065000000 0.0065000000 0.0065000000 0.0065000000 0.0065000000 0.0065000000 0.0065000000 0.0065000000 0.0065000000 0.0065000000 0.0065000000 0.0065000000 0.0065000000 0.0065000000 0.0065000000 0.0065000000 0.0065000000 0.0065000000 0.0065000000 0.0065000000 0.0065000000 0.0065000000 0.0065000000 0.0065000000 0.0065000000 0.0065000000 0.0065000000 0.0065000000 0.0065000000 0.0065000000 0.0065000000 0.0065000000 0.0065000000 0.0065000000 0.0065000000 0.0065000000 0.0065000000 0.0065000000 0.0065000000 0.0065000000 0.0065000000 0.0065000000 0.0065000000 0.0065000000 0.0065000000 0.0065000000 0.0065000000 0.0065000000 0.0065000000 0.0065000000 0.0065000000 0.0065000000 0.0065000000 0.0065000000 0.0065000000 0.0065000000 0.0065000000 0.0065000000 0.0065000000 0.0065000000 0.0065000000 0.0065000000 0.0065000000 0.0065000000 0.0065000000 0.0065000000 0.0065000000 0.0065000000 0.0065000000 0.0065000000 0.0065000000 0.0065000000 0.0065000000 0.0065000000 0.0065000000 0.0065000000 0.0065000000 0.0065000000 0.0065000000 0.0065000000 0.0065000000 0.0065000000 0.0065000000 0.0065000000 0.0065000000 0.0065000000 0.0065000000 0.0065000000 0.0065000000 0.0065000000 0.0065000000 0.0065000000 0.0065000000 0.0065000000 0.0065000000 0.0065000000 0.0065000000 0.0065000000 0.0065000000 0.0065000000 0.0065000000 0.0065000000 0.0065000000 0.0065000000 0.0065000000 0.0065000000 0.0065000000 0.0065000000 0.0065000000 0.0065000000 0.0065000000 0.0065000000 0.0065000000 0.0065000000 0.0065000000 0.0065000000 0.0065000000 0.0065000000 0.0065000000 0.0065000000 0.0065000000 0.0065000000 0.0065000000 0.0065000000 0.0065000000 0.0065000000 0.0065000000 0.0065000000 0.0065000000 0.0065000000 0.0065000000 0.0065000000 0.0065000000 0.0065000000 0.0065000000 0.0065000000 0.0065000000 0.0065000000 0.0065000000 0.0065000000 0.0065000000 0.0065000000 0.0065000000 0.0065000000 0.0065000000 0.0065000000 0.0065000000 0.0065000000 0.0065000000 0.0065000000 0.0065000000 0.0065000000 0.0065000000 0.0065000000 0.0065000000 0.0065000000 0.0065000000 0.0065000000 0.0065000000 0.0065000000 0.0065000000 0.0065000000 0.0065000000 0.0065000000 0.0065000000 0.0065000000 0.0065000000 0.0065000000 0.0065000000 0.0065000000 0.0065000000 0.0065000000 0.0065000000 0.0065000000 0.0065000000 0.0065000000 0.0065000000 0.0065000000 0.0065000000 0.0065000000 0.0065000000 0.0065000000 0.0065000000 0.0065000000 0.0065000000 0.0065000000 0.0065000000 0.0065000000 0.0065000000 0.0065000000 0.0065000000 0.0065000000 0.0065000000 0.0065000000 0.0065000000 0.0065000000 0.0065000000 0.0065000000 0.0065000000 0.0065000000 0.0065000000 0.0065000000 0.0065000000 0.0065000000 0.0065000000 0.0065000000 0.0065000000 0.0065000000 0.0065000000 0.0065000000 0.0065000000 0.0065000000 0.0065000000 0.0065000000 0.0065000000 0.0065000000 0.0065000000 0.0065000000 0.0065000000 0.0065000000 0.0065000000 0.0065000000 0.0065000000 0.0065000000 0.0065000000 0.0065000000 0.0065000000 0.0065000000 0.0065000000 0.0065000000 0.0065000000 0.0065000000 0.0065000000 0.0065000000 0.0065000000 0.0065000000 0.0065000000 0.0065000000 0.0065000000 0.0065000000 0.0065000000 0.0065000000 0.0065000000 0.0065000000 0.0065000000 0.0065000000 0.0065000000 0.0065000000 0.0065000000 0.0065000000 0.0065000000 0.0065000000 0.0065000000 0.0065000000 0.0065000000 0.0065000000 0.0065000000 0.0065000000 0.0065000000 0.0065000000 0.0065000000 0.0065000000 0.0065000000 0.0065000000 0.0065000000 0.0065000000 0.0065000000 0.0065000000 0.0065000000 0.0065000000 0.0065000000 0.0065000000 0.0065000000 0.0065000000 0.0065000000 0.0065000000 0.0065000000 0.0065000000 0.0065000000 0.0065000000 0.0065000000 0.0065000000 0.0065000000 0.0065000000 0.0065000000 0.0065000000 0.0065000000 0.0065000000 0.0065000000 0.0065000000 0.0065000000 0.0065000000 0.0065000000 0.0065000000 0.0065000000 0.0065000000 0.0065000000 0.0065000000 0.0065000000 0.0065000000 0.0065000000 0.0065000000 0.0065000000 0.0065000000 0.0065000000 0.0065000000 0.0065000000 0.0065000000 0.0065000000 0.0065000000 0.0065000000 0.0065000000 0.0065000000 0.0065000000 0.0065000000 0.0065000000 0.0065000000 0.0065000000 0.0065000000 0.0065000000 0.0065000000 0.0065000000 0.0065000000 0.0065000000 0.0065000000 0.0065000000 0.0065000000 0.0065000000 0.0065000000 0.0065000000 0.0065000000 0.0065000000 0.0065000000 0.0065000000 0.0065000000 0.0065000000 0.0065000000 0.0065000000 0.0065000000 0.0065000000 0.0065000000 0.0065000000 0.0065000000 0.0065000000 0.0065000000 0.0065000000 0.0065000000 0.0065000000 0.0065000000 0.0065000000 0.0065000000 0.0065000000 0.0065000000 0.0065000000 0.0065000000 0.0065000000 0.0065000000 0.0065000000 0.0065000000 0.0065000000 0.0065000000 0.0065000000 0.0065000000 0.0065000000 0.0065000000 0.0065000000 0.0065000000 0.0065000000 0.0065000000 0.0065000000 0.0065000000 0.0065000000 0.0065000000 0.0065000000 0.0065000000 0.0065000000 0.0065000000 0.0065000000 0.0065000000 0.0065000000 0.0065000000 0.0065000000 0.0065000000 0.0065000000 0.0065000000 0.0065000000 0.0065000000 0.0065000000 0.0065000000 0.0065000000 0.0065000000 0.0065000000 0.0065000000 0.0065000000 0.0065000000 0.0065000000 0.0065000000 0.0065000000 0.0065000000 0.0065000000 0.0065000000 0.0065000000 0.0065000000 0.0065000000 0.0065000000 0.0065000000 0.0065000000 0.0065000000 0.0065000000 0.0065000000 0.0065000000 0.0065000000 0.0065000000 0.0065000000 0.0065000000 0.0065000000 0.0065000000 0.0065000000 0.0065000000 0.0065000000 0.0065000000 0.0065000000 0.0065000000 0.0065000000 0.0065000000 0.0065000000 0.0065000000 0.0065000000 0.0065000000 0.0065000000 0.0065000000 0.0065000000 0.0065000000 0.0065000000 0.0065000000 0.0065000000 0.0065000000 0.0065000000 0.0065000000 0.0065000000 0.0065000000 0.0065000000 0.0065000000 0.0065000000 0.0065000000 0.0065000000 0.0065000000 0.0065000000 0.0065000000 0.0065000000 0.0065000000 0.0065000000 0.0065000000 0.0065000000 0.0065000000 0.0065000000 0.0065000000 0.0065000000 0.0065000000 0.0065000000 0.0065000000 0.0065000000 0.0065000000 0.0065000000 0.0065000000 0.0065000000 0.0065000000 0.0065000000 0.0065000000 0.0065000000 0.0065000000 0.0065000000 0.0065000000 0.0065000000 0.0065000000 0.0065000000 0.0065000000 0.0065000000 0.0065000000 0.0065000000 0.0065000000 0.0065000000 0.0065000000 0.0065000000 0.0065000000 0.0065000000 0.0065000000 0.0065000000 0.0065000000 0.0065000000 0.0065000000 0.0065000000 0.0065000000 0.0065000000 0.0065000000 0.0065000000 0.0065000000 0.0065000000 0.0065000000 0.0065000000 0.0065000000 0.0065000000 0.0065000000 0.0065000000 0.0065000000 0.0065000000 0.0065000000 0.0065000000 0.0065000000 0.0065000000 0.0065000000 0.0065000000 0.0065000000 0.0065000000 0.0065000000 0.0065000000 0.0065000000 0.0065000000 0.0065000000 0.0065000000 0.0065000000 0.0065000000 0.0065000000 0.0065000000 0.0065000000 0.0065000000 0.0065000000 0.0065000000 0.0065000000 0.0065000000 0.0065000000 0.0065000000 0.0065000000 0.0065000000 0.0065000000 0.0065000000 0.0065000000 0.0065000000 0.0065000000 0.0065000000 0.0065000000 0.0065000000 0.0065000000 0.0065000000 0.0065000000 0.0065000000 0.0065000000 0.0065000000 0.0065000000 0.0065000000 0.0065000000 0.0065000000 0.0065000000 0.0065000000 0.0065000000 0.0065000000 0.0065000000 0.0065000000 0.0065000000 0.0065000000 0.0065000000 0.0065000000 0.0065000000 0.0065000000 0.0065000000 0.0065000000 0.0065000000 0.0065000000 0.0065000000 0.0065000000 0.0065000000 0.0065000000 0.0065000000 0.0065000000 0.0065000000 0.0065000000 0.0065000000 0.0065000000 0.0065000000 0.0065000000 0.0065000000 0.0065000000 0.0065000000 0.0065000000 0.0065000000 0.0065000000 0.0065000000 0.0065000000 0.0065000000 0.0065000000 0.0065000000 0.0065000000 0.0065000000 0.0065000000 0.0065000000 0.0065000000 0.0065000000 0.0065000000 0.0065000000 0.0065000000 0.0065000000 0.0065000000 0.0065000000 0.0065000000 0.0065000000 0.0065000000 0.0065000000 0.0065000000 0.0065000000 0.0065000000 0.0065000000 0.0065000000 0.0065000000 0.0065000000 0.0065000000 0.0065000000 0.0065000000 0.0065000000 0.0065000000 0.0065000000 0.0065000000 0.0065000000 0.0065000000 0.0065000000 0.0065000000 0.0065000000 0.0065000000 0.0065000000 0.0065000000 0.0065000000 0.0065000000 0.0065000000 0.0065000000 0.0065000000 0.0065000000 0.0065000000 0.0065000000 0.0065000000 0.0065000000 0.0065000000 0.0065000000 0.0065000000 0.0065000000 0.0065000000 0.0065000000 0.0065000000 0.0065000000 0.0065000000 0.0065000000 0.0065000000 0.0065000000 0.0065000000 0.0065000000 0.0065000000 0.0065000000 0.0065000000 0.0065000000 0.0065000000 0.0065000000 0.0065000000 0.0065000000 0.0065000000 0.0065000000 0.0065000000 0.0065000000 0.0065000000 0.0065000000 0.0065000000 0.0065000000 0.0065000000 0.0065000000 0.0065000000 0.0065000000 0.0065000000 0.0065000000 0.0065000000 0.0065000000 0.0065000000 0.0065000000 0.0065000000 0.0065000000 0.0065000000 0.0065000000 0.0065000000 0.0065000000 0.0065000000 0.0065000000 0.0065000000 0.0065000000 0.0065000000 0.0065000000 0.0065000000 0.0065000000 0.0065000000 0.0065000000 0.0065000000 0.0065000000 0.0065000000 0.0065000000 0.0065000000 0.0065000000 0.0065000000 0.0065000000 0.0065000000 0.0065000000 0.0065000000 0.0065000000 0.0065000000 0.0065000000 0.0065000000 0.0065000000 0.0065000000 0.0065000000 0.0065000000 0.0065000000 0.0065000000 0.0065000000 0.0065000000 0.0065000000 0.0065000000 0.0065000000 0.0065000000 0.0065000000 0.0065000000 0.0065000000 0.0065000000 0.0065000000 0.0065000000 0.0065000000 0.0065000000 0.0065000000 0.0065000000 0.0065000000 0.0065000000 0.0065000000 0.0065000000 0.0065000000 0.0065000000 0.0065000000 0.0065000000 0.0065000000 0.0065000000 0.0065000000 0.0065000000 0.0065000000 0.0065000000 0.0065000000 0.0065000000 0.0065000000 0.0065000000 0.0065000000 0.0065000000 0.0065000000 0.0065000000 0.0065000000 0.0065000000 0.0065000000 0.0065000000 0.0065000000 0.0065000000 0.0065000000 0.0065000000 0.0065000000 0.0065000000 0.0065000000 0.0065000000 0.0065000000 0.0065000000 0.0065000000 0.0065000000 0.0065000000 0.0065000000 0.0065000000 0.0065000000 0.0065000000 0.0065000000 0.0065000000 0.0065000000 0.0065000000 0.0065000000 0.0065000000 0.0065000000 0.0065000000 0.0065000000 0.0065000000 0.0065000000 0.0065000000 0.0065000000 0.0065000000 0.0065000000 0.0065000000 0.0065000000 0.0065000000 0.0065000000 0.0065000000 0.0065000000 0.0065000000 0.0065000000 0.0065000000 0.0065000000 0.0065000000 0.0065000000 0.0065000000 0.0065000000 0.0065000000 0.0065000000 0.0065000000 0.0065000000 0.0065000000 0.0065000000 0.0065000000 0.0065000000 0.0065000000 0.0065000000 0.0065000000 0.0065000000 0.0065000000 0.0065000000 0.0065000000 0.0065000000 0.0065000000 0.0065000000 0.0065000000 0.0065000000 0.0065000000 0.0065000000 0.0065000000 0.0065000000 0.0065000000 0.0065000000 0.0065000000 0.0065000000 0.0065000000 0.0065000000 0.0065000000 0.0065000000 0.0065000000 0.0065000000 0.0065000000 0.0065000000 0.0065000000 0.0065000000 0.0065000000 0.0065000000 0.0065000000 0.0065000000 0.0065000000 0.0065000000 0.0065000000 0.0065000000 0.0065000000 0.0065000000 0.0065000000 0.0065000000 0.0065000000 0.0065000000 0.0065000000 0.0065000000 0.0065000000 0.0065000000 0.0065000000 0.0065000000 0.0065000000 0.0065000000 0.0065000000 0.0065000000 0.0065000000 0.0065000000 0.0065000000 0.0065000000 0.0065000000 0.0065000000 0.0065000000 0.0065000000 0.0065000000 0.0065000000 0.0065000000 0.0065000000 0.0065000000 0.0065000000 0.0065000000 0.0065000000 0.0065000000 0.0065000000 0.0065000000 0.0065000000 0.0065000000 0.0065000000 0.0065000000 0.0065000000 0.0065000000 0.0065000000 0.0065000000 0.0065000000 0.0065000000 0.0065000000 0.0065000000 0.0065000000 0.0065000000 0.0065000000 0.0065000000 0.0065000000 0.0065000000 0.0065000000 0.0065000000 0.0065000000 0.0065000000 0.0065000000 0.0065000000 0.0065000000 0.0065000000 0.0065000000 0.0065000000 0.0065000000 0.0065000000 0.0065000000 0.0065000000 0.0065000000 0.0065000000 0.0065000000 0.0065000000 0.0065000000 0.0065000000 0.0065000000 0.0065000000 0.0065000000 0.0065000000 0.0065000000 0.0065000000 0.0065000000 0.0065000000 0.0065000000 0.0065000000 0.0065000000 0.0065000000 0.0065000000 0.0065000000 0.0065000000 0.0065000000 0.0065000000 0.0065000000 0.0065000000 0.0065000000 0.0065000000 0.0065000000 0.0065000000 0.0065000000 0.0065000000 0.0065000000 0.0065000000 0.0065000000 0.0065000000 0.0065000000 0.0065000000 0.0065000000 0.0065000000 0.0065000000 0.0065000000 0.0065000000 0.0065000000 0.0065000000 0.0065000000 0.0065000000 0.0065000000 0.0065000000 0.0065000000 0.0065000000 0.0065000000 0.0065000000 0.0065000000 0.0065000000 0.0065000000 0.0065000000 0.0065000000 0.0065000000 0.0065000000 0.0065000000 0.0065000000 0.0065000000 0.0065000000 0.0065000000 0.0065000000 0.0065000000 0.0065000000 0.0065000000 0.0065000000 0.0065000000 0.0065000000 0.0065000000 0.0065000000 0.0065000000 0.0065000000 0.0065000000 0.0065000000 0.0065000000 0.0065000000 0.0065000000 0.0065000000 0.0065000000 0.0065000000 0.0065000000 0.0065000000 0.0065000000 0.0065000000 0.0065000000 0.0065000000 0.0065000000 0.0065000000 0.0065000000 0.0065000000 0.0065000000 0.0065000000 0.0065000000 0.0065000000 0.0065000000 0.0065000000 0.0065000000 0.0065000000 0.0065000000 0.0065000000 0.0065000000 0.0065000000 0.0065000000 0.0065000000 0.0065000000 0.0065000000 0.0065000000 0.0065000000 0.0065000000 0.0065000000 0.0065000000 0.0065000000 0.0065000000 0.0065000000 0.0065000000 0.0065000000 0.0065000000 0.0065000000 0.0065000000 0.0065000000 0.0065000000 0.0065000000 0.0065000000 0.0065000000 0.0065000000 0.0065000000 0.0065000000 0.0065000000 0.0065000000 0.0065000000 0.0065000000 0.0065000000 0.0065000000 0.0065000000 0.0065000000 0.0065000000 0.0065000000 0.0065000000 0.0065000000 0.0065000000 0.0065000000 0.0065000000 0.0065000000 0.0065000000 0.0065000000 0.0065000000 0.0065000000 0.0065000000 0.0065000000 0.0065000000 0.0065000000 0.0065000000 0.0065000000 0.0065000000 0.0065000000 0.0065000000 0.0065000000 0.0065000000 0.0065000000 0.0065000000 0.0065000000 0.0065000000 0.0065000000 0.0065000000 0.0065000000 0.0065000000 0.0065000000 0.0065000000 0.0065000000 0.0065000000 0.0065000000 0.0065000000 0.0065000000 0.0065000000 0.0065000000 0.0065000000 0.0065000000 0.0065000000 0.0065000000 0.0065000000 0.0065000000 0.0065000000 0.0065000000 0.0065000000 0.0065000000 0.0065000000 0.0065000000 0.0065000000 0.0065000000 0.0065000000 0.0065000000 0.0065000000 0.0065000000 0.0065000000 0.0065000000 0.0065000000 0.0065000000 0.0065000000 0.0065000000 0.0065000000 0.0065000000 0.0065000000 0.0065000000 0.0065000000 0.0065000000 0.0065000000 0.0065000000 0.0065000000 0.0065000000 0.0065000000 0.0065000000 0.0065000000 0.0065000000 0.0065000000 0.0065000000 0.0065000000 0.0065000000 0.0065000000 0.0065000000 0.0065000000 0.0065000000 0.0065000000 0.0065000000 0.0065000000 0.0065000000 0.0065000000 0.0065000000 0.0065000000 0.0065000000 0.0065000000 0.0065000000 0.0065000000 0.0065000000 0.0065000000 0.0065000000 0.0065000000 0.0065000000 0.0065000000 0.0065000000 0.0065000000 0.0065000000 0.0065000000 0.0065000000 0.0065000000 0.0065000000 0.0065000000 0.0065000000 0.0065000000 0.0065000000 0.0065000000 0.0065000000 0.0065000000 0.0065000000 0.0065000000 0.0065000000 0.0065000000 0.0065000000 0.0065000000 0.0065000000 0.0065000000 0.0065000000 0.0065000000 0.0065000000 0.0065000000 0.0065000000 0.0065000000 0.0065000000 0.0065000000 0.0065000000 0.0065000000 0.0065000000 0.0065000000 0.0065000000 0.0065000000 0.0065000000 0.0065000000 0.0065000000 0.0065000000 0.0065000000 0.0065000000 0.0065000000 0.0065000000 0.0065000000 0.0065000000 0.0065000000 0.0065000000 0.0065000000 0.0065000000 0.0065000000 0.0065000000 0.0065000000 0.0065000000 0.0065000000 0.0065000000 0.0065000000 0.0065000000 0.0065000000 0.0065000000 0.0065000000 0.0065000000 0.0065000000 0.0065000000 0.0065000000 0.0065000000 0.0065000000 0.0065000000 0.0065000000 0.0065000000 0.0065000000 0.0065000000 0.0065000000 0.0065000000 0.0065000000 0.0065000000 0.0065000000 0.0065000000 0.0065000000 0.0065000000 0.0065000000 0.0065000000 0.0065000000 0.0065000000 0.0065000000 0.0065000000 0.0065000000 0.0065000000 0.0065000000 0.0065000000 0.0065000000 0.0065000000 0.0065000000 0.0065000000 0.0065000000 0.0065000000 0.0065000000 0.0065000000 0.0065000000 0.0065000000 0.0065000000 0.0065000000 0.0065000000 0.0065000000 0.0065000000 0.0065000000 0.0065000000 0.0065000000 0.0065000000 0.0065000000 0.0065000000 0.0065000000 0.0065000000 0.0065000000 0.0065000000 0.0065000000 0.0065000000 0.0065000000 0.0065000000 0.0065000000 0.0065000000 0.0065000000 0.0065000000 0.0065000000 0.0065000000 0.0065000000 0.0065000000 0.0065000000 0.0065000000 0.0065000000 0.0065000000 0.0065000000 0.0065000000 0.0065000000 0.0065000000 0.0065000000 0.0065000000 0.0065000000 0.0065000000 0.0065000000 0.0065000000 0.0065000000 0.0065000000 0.0065000000 0.0065000000 0.0065000000 0.0065000000 0.0065000000 0.0065000000 0.0065000000 0.0065000000 0.0065000000 0.0065000000 0.0065000000 0.0065000000 0.0065000000 0.0065000000 0.0065000000 0.0065000000 0.0065000000 0.0065000000 0.0065000000 0.0065000000 0.0065000000 0.0065000000 0.0065000000 0.0065000000 0.0065000000 0.0065000000 0.0065000000 0.0065000000 0.0065000000 0.0065000000 0.0065000000 0.0065000000 0.0065000000 0.0065000000 0.0065000000 0.0065000000 0.0065000000 0.0065000000 0.0065000000 0.0065000000 0.0065000000 0.0065000000 0.0065000000 0.0065000000 0.0065000000 0.0065000000 0.0065000000 0.0065000000 0.0065000000 0.0065000000 0.0065000000 0.0065000000 0.0065000000 0.0065000000 0.0065000000 0.0065000000 0.0065000000 0.0065000000 0.0065000000 0.0065000000 0.0065000000 0.0065000000 0.0065000000 0.0065000000 0.0065000000 0.0065000000 0.0065000000 0.0065000000 0.0065000000 0.0065000000 0.0065000000 0.0065000000 0.0065000000 0.0065000000 0.0065000000 0.0065000000 0.0065000000 0.0065000000 0.0065000000 0.0065000000 0.0065000000 0.0065000000 0.0065000000 0.0065000000 0.0065000000 0.0065000000 0.0065000000 0.0065000000 0.006500000