<?xml version="1.0"?>
<VTKFile type="UnstructuredGrid" version="0.1" byte_order="LittleEndian">
  <UnstructuredGrid>
    <FieldData>
      <DataArray type="Float32" Name="TIME"  NumberOfTuples="1" format="ascii"> 2.3483825328 </DataArray>
      <DataArray type="Int32"   Name="STEP"  NumberOfTuples="1" format="ascii"> 31490 </DataArray>
    </FieldData>
    <Piece NumberOfPoints="18081" NumberOfCells="18081">
      <Points>
        <DataArray type="Float32" NumberOfComponents="3" format="ascii">
 0.0482445817 0.0907189472 0.0082498444 0.0027058475 0.0791237536 0.0000553588 0.0929021187 0.0713268174 0.0057900040 0.1096407206 0.0069745347 0.0095838480 0.1077723274 0.0416451530 0.0058510280 0.0250980762 0.0000127330 0.0136281766 0.4640000910 0.0096832099 0.0245925091 0.4212685945 0.0236260483 0.0108590220 0.4584197844 0.0009701455 0.0075494329 0.4341872109 0.0228450301 0.0137360514 0.4686000135 0.0231517036 0.0173413816 0.4948557922 0.0106663895 0.0076927714 0.4933485301 0.0089734358 0.0180459393 0.4163706102 0.0288262839 0.0301793765 0.4869720564 0.0547673489 0.0228272840 0.4622735068 0.0214318341 0.0339006763 0.4994008657 0.0077538216 0.0095211079 0.4215073542 0.0858050269 0.0382072372 0.4524560137 0.0208364997 0.0360510452 0.2114311055 0.0068914742 0.0125572593 0.4922130356 0.0034439990 0.0328428834 0.0738938506 0.0982850474 0.0000951861 0.0165449764 0.0353975532 0.0130877003 0.0752559932 0.0480319326 0.0033381684 0.0821690097 0.0480646014 0.0009140143 0.0420359334 0.0113376151 0.0059985790 0.3914907029 -0.0000812689 0.0066118966 0.4666927047 0.0006744654 0.0151801355 0.4227836167 0.0135732548 0.0034067997 0.4932858524 0.0180309156 0.0227918396 0.4523452472 0.0029829736 0.0084767806 0.4408377764 0.0634070110 0.0225081840 0.4985425366 0.0153615883 0.0218826758 0.4417630227 0.0580357579 0.0157133750 0.4853818668 0.0087449245 0.0087804581 0.4194950391 0.0359741292 0.0309230675 0.4617047373 0.0242460564 0.0147817352 0.4436170185 0.0236631060 0.0363300677 0.0731083499 0.0346385899 0.0138276848 0.0294197990 0.0112597322 0.0138350500 0.3860636804 0.0257275091 0.0178937468 0.4157989687 0.0945924282 0.0415589860 0.1403900021 0.0321430370 0.0113172375 0.0001891220 0.0699908797 0.0004865181 0.0689514906 0.0742103242 0.0000751152 0.2169856697 0.0758461892 0.0139810407 0.3723123875 0.0027193507 0.0177506456 0.4281410916 0.0283054368 0.0177628124 0.4513942662 0.0014669631 -0.0000143627 0.4992090145 0.0500485614 0.0041978929 0.4988468516 0.0637133176 0.0138302744 0.4396532350 0.0034627618 0.0111110244 0.4156106465 0.0566329111 0.0421299527 0.4087810615 0.0539321289 0.0053960863 0.4850518263 0.0566563337 0.0271438107 0.4783341080 0.0547194808 0.0086483349 0.3872829036 0.0173553499 0.0049209924 0.4160079352 0.0227977050 -0.0002054613 0.4626661186 0.0254261613 0.0301212140 0.0206531089 0.0548382265 0.0096337760 0.4609760173 0.0577393323 0.0328626678 0.4944303705 0.0466982374 0.0070607981 0.4479208192 0.0593783893 0.0182006040 0.0814146936 0.0583521175 0.0001954061 0.1107666920 0.0184080164 0.0130502202 0.0656034555 0.0720892472 0.0032242721 0.0886711310 0.0446608349 0.0088606234 0.3884246571 0.0107683529 0.0154924858 0.4134750613 0.0045251879 0.0073337998 0.4147489534 0.0000056033 0.0113169319 0.3681749531 0.0281501019 0.0187685107 0.2984265376 0.0009782432 0.0157261209 0.4833692917 0.0165941514 0.0003876144 0.4335103742 0.0743479811 0.0181629324 0.4027589805 0.0569537284 0.0149328459 0.4568580557 0.0210088935 0.0180230325 0.3699418237 0.0085328194 0.0104574880 0.3341485670 0.0510610493 0.0096779473 0.4293367917 0.0340056882 0.0376739840 0.2978276073 0.0141271214 0.0166094050 0.0212944933 0.0624495731 0.0094444375 0.0351084139 0.0977416594 0.0071088689 0.0513817726 0.0355620229 0.0186865704 0.4599393552 0.0895977147 0.0037919541 0.1716744510 0.0341957465 0.0067640652 0.1952519898 0.0205407813 0.0037896413 0.0400550853 0.0406264859 0.0002693219 0.2826327245 0.0000067947 0.0078299631 0.3488223004 0.0099093987 0.0004459768 0.4108955204 0.0007856672 0.0155239805 0.4568167228 0.0355827607 0.0002673474 0.4113007465 0.0085348813 0.0129801870 0.3845700846 0.0101119033 0.0101911888 0.3939931902 0.0318821002 0.0109002718 0.4687034408 0.0704662541 0.0037546137 0.4210282272 0.0755275302 0.0259490997 0.4049317726 0.0461390179 0.0228283818 0.4031942064 0.0421428378 0.0060276606 0.3208669670 0.0463140416 0.0144288726 0.4417062984 0.0560986430 0.0349132379 0.4709693776 0.0086580626 0.0329058412 0.4265281513 0.0273949199 0.0392193831 0.4064534666 0.0736414796 0.0317871881 0.4183164592 0.0115064420 0.0386893185 0.4198218877 0.0632498557 0.0412875140 0.1620636518 0.0231027899 0.0096581743 0.0867975893 0.0514731724 0.0010047884 0.0706334491 0.0649877163 0.0006133650 0.0074532651 0.0326063112 0.0026463176 0.4067018220 0.0132689909 0.0205895172 0.4574582372 0.0086943321 -0.0001905431 0.3744999776 0.0368972553 0.0106475875 0.4088376551 0.0271651222 0.0327878820 0.3221826998 0.0598968101 0.0162792763 0.3767177095 0.0209581479 0.0027019267 0.4233812637 0.0335856746 0.0095882852 0.3990788592 0.0539431061 0.0113016217 0.4221474229 0.0570448171 0.0212872796 0.4206305636 0.0946459207 0.0429824321 0.4386132144 0.0432520709 0.0252834734 0.4244202152 0.0570604127 0.0296143766 0.2727293065 0.0088946786 0.0146825744 0.0898279960 0.0818035405 0.0087322710 0.3002698548 0.0061720894 0.0089285890 0.4211691869 0.0068323926 0.0441899342 0.4840380943 0.0572714877 0.0075829558 0.1722252632 0.0311009442 0.0004406863 0.2091348445 0.0117481427 0.0089790482 0.0712663020 0.0440381993 0.0002358590 0.3534133555 0.0115665114 0.0046933856 0.3734017726 0.0165644794 0.0126230941 0.3794937155 0.0003873830 0.0006441836 0.3424577648 0.0227034906 0.0020273836 0.4202729608 0.0174264331 0.0005056474 0.3378808975 0.0144803484 0.0085604368 0.3454987147 0.0189035682 -0.0002804311 0.3872676716 0.0485398009 0.0030070943 0.4226870333 0.0366565206 0.0050465649 0.3707864197 0.0620271009 0.0174337673 0.4370937788 0.0640647271 0.0008110881 0.2935222029 0.0357997913 0.0003075621 0.4567897821 0.0703758336 0.0319715513 0.0114950610 0.0433851520 0.0050841042 0.1229743145 0.0470948479 0.0144812776 0.0863969521 0.0331844416 0.0131843373 0.0090502537 0.0788886210 0.0129255171 0.4123369049 0.1064010773 0.0407503685 0.1570444888 0.0215796638 0.0118427033 0.1201054892 0.0285194296 0.0037133474 0.1436511092 0.0199402316 0.0001543807 0.3381607244 -0.0001416781 0.0001405870 0.3640930684 0.0151640167 0.0161482753 0.3663206119 0.0004007150 0.0108435624 0.3719132277 0.0181948086 -0.0000887779 0.2833670422 0.0463610567 0.0158622339 0.3928766955 0.0238244141 0.0007278195 0.3588397702 0.0255964915 0.0068894666 0.4068803099 0.0687348020 0.0002842870 0.4552183997 0.0587080573 0.0172224372 0.3336497813 0.0635258764 0.0079939957 0.4141321453 0.0407827310 0.0335097468 0.3723517826 0.0526394477 0.0153234909 0.2874210244 0.0393128502 0.0156854698 0.2817286791 0.0600650089 0.0148377144 0.0316044604 0.0557110435 0.0087232625 0.2720371304 0.0302648409 0.0106774107 0.2725456038 0.0402807047 0.0159867477 0.0719586483 0.0439625083 0.0178182682 0.1139852611 0.0196825547 0.0083654850 0.2087353946 0.0420271355 0.0066351323 0.1485822599 0.0229968362 0.0000001500 0.3321516284 0.0006584278 0.0080406694 0.4008283416 -0.0002710866 0.0094542011 0.3960036619 -0.0001942904 0.0116106815 0.3635819197 0.0074475578 0.0041481652 0.3125373263 0.0279819643 0.0043197413 0.0852486097 0.0111875533 0.0066376308 0.0099108657 0.0357861035 0.0001909848 0.4047215692 0.0550040530 0.0113865119 0.4079801329 0.0647111451 0.0013860384 0.3709578449 0.0591992546 0.0003532997 0.4276448975 0.0585011706 0.0161310521 0.4520333884 0.0597571297 0.0283097062 0.4543274475 0.0885620369 0.0226697438 0.4690949351 0.0877177723 0.0351769019 0.0260339147 0.0307616850 0.0046335150 0.0854790258 0.0287179222 0.0126678181 0.4519877198 0.0283824442 0.0133345584 0.0732277698 0.0459687784 0.0140411063 0.1816364414 0.0358902263 0.0088172689 0.1723747107 0.0524809862 0.0057624595 0.1878148028 0.0412110045 -0.0001761748 0.3247137849 0.0002490281 0.0005593439 0.3891631097 0.0227728861 0.0161677218 0.3528560222 -0.0000359647 0.0013027551 0.3730886096 0.0124191610 0.0087228127 0.3637098530 0.0276693804 -0.0000691029 0.3776923853 0.0197126856 0.0104626795 0.2632403484 0.0157874200 -0.0003249169 0.4032252030 0.0472083112 -0.0000634541 0.4700114493 0.0483081987 0.0170070510 0.4225028381 0.0455829808 0.0168333992 0.4082296050 0.0156593144 0.0140780087 0.3819379576 0.0805799246 0.0249484659 0.2318667215 0.0122653449 -0.0003355222 0.4135064984 0.0667884152 0.0350224277 0.3143903552 0.0880792460 0.0158941413 0.4321793754 0.0643267093 0.0250787197 0.0560689054 0.0122320141 0.0167324511 0.4609497632 0.0671750285 0.0139435220 0.1779444298 0.0316604695 0.0005417299 0.1370715086 0.0404930919 -0.0002017207 0.0845154988 0.0389554209 0.0005746859 0.3345798244 0.0247445473 0.0031705796 0.3077117312 0.0358946559 0.0098438742 0.3995044467 0.0044275107 0.0201676542 0.3390573343 0.0283070727 0.0025902078 0.4082632852 0.0587613263 0.0002680633 0.0626406140 0.0506821127 0.0083974026 0.3342249321 0.0044185599 0.0000972901 0.4455234164 0.0626995989 0.0006450719 0.4843701386 0.0882614512 0.0007664900 0.3299482612 0.0717634354 0.0031486161 0.4783211986 0.0629312435 0.0081586680 0.4055964479 0.0611289418 0.0255770154 0.2414278353 0.0660339679 0.0118208442 0.2500555900 0.0644192849 0.0135671756 0.0975172495 0.0233888287 -0.0000828784 0.2651233112 0.0698148686 0.0062989147 0.4145025102 0.1145699709 0.0317468087 0.4565252411 0.0707070675 0.0105586666 0.1763948785 0.0367218889 0.0086725819 0.1681853754 0.0607671061 0.0079608283 0.1970528086 0.0163413017 0.0002313018 0.3141269629 0.0004209765 0.0105213254 0.0522062863 0.0357315954 0.0040710082 0.3272272053 0.0347380866 0.0033838756 0.3549633115 0.0171931043 0.0030071200 0.3108034335 0.0323708539 0.0080276192 0.4278614771 0.0283419521 0.0022095844 0.3358029583 0.0488059951 0.0047660236 0.4660256063 0.0433096924 0.0156682178 0.4545770348 0.0829580707 0.0227653639 0.471
[...]
      <PointData Scalars="smoothLength">
        <DataArray type="Float32" Name="smoothLength" format="ascii">
 0.0065000000 0.0065000000 0.0065000000 0.0065000000 0.0065000000 0.0065000000 0.0065000000 0.0065000000 0.0065000000 0.0065000000 0.0065000000 0.0065000000 0.0065000000 0.0065000000 0.0065000000 0.0065000000 0.0065000000 0.0065000000 0.0065000000 0.0065000000 0.0065000000 0.0065000000 0.0065000000 0.0065000000 0.0065000000 0.0065000000 0.0065000000 0.0065000000 0.0065000000 0.0065000000 0.0065000000 0.0065000000 0.0065000000 0.0065000000 0.0065000000 0.0065000000 0.0065000000 0.0065000000 0.0065000000 0.0065000000 0.0065000000 0.0065000000 0.0065000000 0.0065000000 0.0065000000 0.0065000000 0.0065000000 0.0065000000 0.0065000000 0.0065000000 0.0065000000 0.0065000000 0.0065000000 0.0065000000 0.0065000000 0.0065000000 0.0065000000 0.0065000000 0.0065000000 0.0065000000 0.0065000000 0.0065000000 0.0065000000 0.0065000000 0.0065000000 0.0065000000 0.0065000000 0.0065000000 0.0065000000 0.0065000000 0.0065000000 0.0065000000 0.0065000000 0.0065000000 0.0065000000 0.0065000000 0.0065000000 0.0065000000 0.0065000000 0.0065000000 0.0065000000 0.0065000000 0.0065000000 0.0065000000 0.0065000000 0.0065000000 0.0065000000 0.0065000000 0.0065000000 0.0065000000 0.0065000000 0.0065000000 0.0065000000 0.0065000000 0.0065000000 0.0065000000 0.0065000000 0.0065000000 0.0065000000 0.0065000000 0.0065000000 0.0065000000 0.0065000000 0.0065000000 0.0065000000 0.0065000000 0.0065000000 0.0065000000 0.0065000000 0.0065000000 0.0065000000 0.0065000000 0.0065000000 0.0065000000 0.0065000000 0.0065000000 0.0065000000 0.0065000000 0.0065000000 0.0065000000 0.0065000000 0.0065000000 0.0065000000 0.0065000000 0.0065000000 0.0065000000 0.0065000000 0.0065000000 0.0065000000 0.0065000000 0.0065000000 0.0065000000 0.0065000000 0.0065000000 0.0065000000 0.0065000000 0.0065000000 0.0065000000 0.0065000000 0.0065000000 0.0065000000 0.0065000000 0.0065000000 0.0065000000 0.0065000000 0.0065000000 0.0065000000 0.0065000000 0.0065000000 0.0065000000 0.0065000000 0.0065000000 0.0065000000 0.0065000000 0.0065000000 0.0065000000 0.0065000000 0.0065000000 0.0065000000 0.0065000000 0.0065000000 0.0065000000 0.0065000000 0.0065000000 0.0065000000 0.0065000000 0.0065000000 0.0065000000 0.0065000000 0.0065000000 0.0065000000 0.0065000000 0.0065000000 0.0065000000 0.0065000000 0.0065000000 0.0065000000 0.0065000000 0.0065000000 0.0065000000 0.0065000000 0.0065000000 0.0065000000 0.0065000000 0.0065000000 0.0065000000 0.0065000000 0.0065000000 0.0065000000 0.0065000000 0.0065000000 0.0065000000 0.0065000000 0.0065000000 0.0065000000 0.0065000000 0.0065000000 0.0065000000 0.0065000000 0.0065000000 0.0065000000 0.0065000000 0.0065000000 0.0065000000 0.0065000000 0.0065000000 0.0065000000 0.0065000000 0.0065000000 0.0065000000 0.0065000000 0.0065000000 0.0065000000 0.0065000000 0.0065000000 0.0065000000 0.0065000000 0.0065000000 0.0065000000 0.0065000000 0.0065000000 0.0065000000 0.0065000000 0.0065000000 0.0065000000 0.0065000000 0.0065000000 0.0065000000 0.0065000000 0.0065000000 0.0065000000 0.0065000000 0.0065000000 0.0065000000 0.0065000000 0.0065000000 0.0065000000 0.0065000000 0.0065000000 0.0065000000 0.0065000000 0.0065000000 0.0065000000 0.0065000000 0.0065000000 0.0065000000 0.0065000000 0.0065000000 0.0065000000 0.0065000000 0.0065000000 0.0065000000 0.0065000000 0.0065000000 0.0065000000 0.0065000000 0.0065000000 0.0065000000 0.0065000000 0.0065000000 0.0065000000 0.0065000000 0.0065000000 0.0065000000 0.0065000000 0.0065000000 0.0065000000 0.0065000000 0.0065000000 0.0065000000 0.0065000000 0.0065000000 0.0065000000 0.0065000000 0.0065000000 0.0065000000 0.0065000000 0.0065000000 0.0065000000 0.0065000000 0.0065000000 0.0065000000 0.0065000000 0.0065000000 0.0065000000 0.0065000000 0.0065000000 0.0065000000 0.0065000000 0.0065000000 0.0065000000 0.0065000000 0.0065000000 0.0065000000 0.0065000000 0.0065000000 0.0065000000 0.0065000000 0.0065000000 0.0065000000 0.0065000000 0.0065000000 0.0065000000 0.0065000000 0.0065000000 0.0065000000 0.0065000000 0.0065000000 0.0065000000 0.0065000000 0.0065000000 0.0065000000 0.0065000000 0.0065000000 0.0065000000 0.0065000000 0.0065000000 0.0065000000 0.0065000000 0.0065000000 0.0065000000 0.0065000000 0.0065000000 0.0065000000 0.0065000000 0.0065000000 0.0065000000 0.0065000000 0.0065000000 0.0065000000 0.0065000000 0.0065000000 0.0065000000 0.0065000000 0.0065000000 0.0065000000 0.0065000000 0.0065000000 0.0065000000 0.0065000000 0.0065000000 0.0065000000 0.0065000000 0.0065000000 0.0065000000 0.0065000000 0.0065000000 0.0065000000 0.0065000000 0.0065000000 0.0065000000 0.0065000000 0.0065000000 0.0065000000 0.0065000000 0.0065000000 0.0065000000 0.0065000000 0.0065000000 0.0065000000 0.0065000000 0.0065000000 0.0065000000 0.0065000000 0.0065000000 0.0065000000 0.0065000000 0.0065000000 0.0065000000 0.0065000000 0.0065000000 0.0065000000 0.0065000000 0.0065000000 0.0065000000 0.0065000000 0.0065000000 0.0065000000 0.0065000000 0.0065000000 0.0065000000 0.0065000000 0.0065000000 0.0065000000 0.0065000000 0.0065000000 0.0065000000 0.0065000000 0.0065000000 0.0065000000 0.0065000000 0.0065000000 0.0065000000 0.0065000000 0.0065000000 0.0065000000 0.0065000000 0.0065000000 0.0065000000 0.0065000000 0.0065000000 0.0065000000 0.0065000000 0.0065000000 0.0065000000 0.0065000000 0.0065000000 0.0065000000 0.0065000000 0.0065000000 0.0065000000 0.0065000000 0.0065000000 0.0065000000 0.0065000000 0.0065000000 0.0065000000 0.0065000000 0.0065000000 0.0065000000 0.0065000000 0.0065000000 0.0065000000 0.0065000000 0.0065000000 0.0065000000 0.0065000000 0.0065000000 0.0065000000 0.0065000000 0.0065000000 0.0065000000 0.0065000000 0.0065000000 0.0065000000 0.0065000000 0.0065000000 0.0065000000 0.0065000000 0.0065000000 0.0065000000 0.0065000000 0.0065000000 0.0065000000 0.0065000000 0.0065000000 0.0065000000 0.0065000000 0.0065000000 0.0065000000 0.0065000000 0.0065000000 0.0065000000 0.0065000000 0.0065000000 0.0065000000 0.0065000000 0.0065000000 0.0065000000 0.0065000000 0.0065000000 0.0065000000 0.0065000000 0.0065000000 0.0065000000 0.0065000000 0.0065000000 0.0065000000 0.0065000000 0.0065000000 0.0065000000 0.0065000000 0.0065000000 0.0065000000 0.0065000000 0.0065000000 0.0065000000 0.0065000000 0.0065000000 0.0065000000 0.0065000000 0.0065000000 0.0065000000 0.0065000000 0.0065000000 0.0065000000 0.0065000000 0.0065000000 0.0065000000 0.0065000000 0.0065000000 0.0065000000 0.0065000000 0.0065000000 0.0065000000 0.0065000000 0.0065000000 0.0065000000 0.0065000000 0.0065000000 0.0065000000 0.0065000000 0.0065000000 0.0065000000 0.0065000000 0.0065000000 0.0065000000 0.0065000000 0.0065000000 0.0065000000 0.0065000000 0.0065000000 0.0065000000 0.0065000000 0.0065000000 0.0065000000 0.0065000000 0.0065000000 0.0065000000 0.0065000000 0.0065000000 0.0065000000 0.0065000000 0.0065000000 0.0065000000 0.0065000000 0.0065000000 0.0065000000 0.0065000000 0.0065000000 0.0065000000 0.0065000000 0.0065000000 0.0065000000 0.0065000000 0.0065000000 0.0065000000 0.0065000000 0.0065000000 0.0065000000 0.0065000000 0.0065000000 0.0065000000 0.0065000000 0.0065000000 0.0065000000 0.0065000000 0.0065000000 0.0065000000 0.0065000000 0.0065000000 0.0065000000 0.0065000000 0.0065000000 0.0065000000 0.0065000000 0.0065000000 0.0065000000 0.0065000000 0.0065000000 0.0065000000 0.0065000000 0.0065000000 0.0065000000 0.0065000000 0.0065000000 0.0065000000 0.0065000000 0.0065000000 0.0065000000 0.0065000000 0.0065000000 0.0065000000 0.0065000000 0.0065000000 0.0065000000 0.0065000000 0.0065000000 0.0065000000 0.0065000000 0.0065000000 0.0065000000 0.0065000000 0.0065000000 0.0065000000 0.0065000000 0.0065000000 0.0065000000 0.0065000000 0.0065000000 0.0065000000 0.0065000000 0.0065000000 0.0065000000 0.0065000000 0.0065000000 0.0065000000 0.0065000000 0.0065000000 0.0065000000 0.0065000000 0.0065000000 0.0065000000 0.0065000000 0.0065000000 0.0065000000 0.0065000000 0.0065000000 0.0065000000 0.0065000000 0.0065000000 0.0065000000 0.0065000000 0.0065000000 0.0065000000 0.0065000000 0.0065000000 0.0065000000 0.0065000000 0.0065000000 0.0065000000 0.0065000000 0.0065000000 0.0065000000 0.0065000000 0.0065000000 0.0065000000 0.0065000000 0.0065000000 0.0065000000 0.0065000000 0.0065000000 0.0065000000 0.0065000000 0.0065000000 0.0065000000 0.0065000000 0.0065000000 0.0065000000 0.0065000000 0.0065000000 0.0065000000 0.0065000000 0.0065000000 0.0065000000 0.0065000000 0.0065000000 0.0065000000 0.0065000000 0.0065000000 0.0065000000 0.0065000000 0.0065000000 0.0065000000 0.0065000000 0.0065000000 0.0065000000 0.0065000000 0.0065000000 0.0065000000 0.0065000000 0.0065000000 0.0065000000 0.0065000000 0.0065000000 0.0065000000 0.0065000000 0.0065000000 0.0065000000 0.0065000000 0.0065000000 0.0065000000 0.0065000000 0.0065000000 0.0065000000 0.0065000000 0.0065000000 0.0065000000 0.0065000000 0.0065000000 0.0065000000 0.0065000000 0.0065000000 0.0065000000 0.0065000000 0.0065000000 0.0065000000 0.0065000000 0.0065000000 0.0065000000 0.0065000000 0.0065000000 0.0065000000 0.0065000000 0.0065000000 0.0065000000 0.0065000000 0.0065000000 0.0065000000 0.0065000000 0.0065000000 0.0065000000 0.0065000000 0.0065000000 0.0065000000 0.0065000000 0.0065000000 0.0065000000 0.0065000000 0.0065000000 0.0065000000 0.0065000000 0.0065000000 0.0065000000 0.0065000000 0.0065000000 0.0065000000 0.0065000000 0.0065000000 0.0065000000 0.0065000000 0.0065000000 0.0065000000 0.0065000000 0.0065000000 0.0065000000 0.0065000000 0.0065000000 0.0065000000 0.0065000000 0.0065000000 0.0065000000 0.0065000000 0.0065000000 0.0065000000 0.0065000000 0.0065000000 0.0065000000 0.0065000000 0.0065000000 0.0065000000 0.0065000000 0.0065000000 0.0065000000 0.0065000000 0.0065000000 0.0065000000 0.0065000000 0.0065000000 0.0065000000 0.0065000000 0.0065000000 0.0065000000 0.0065000000 0.0065000000 0.0065000000 0.0065000000 0.0065000000 0.0065000000 0.0065000000 0.0065000000 0.0065000000 0.0065000000 0.0065000000 0.0065000000 0.0065000000 0.0065000000 0.0065000000 0.0065000000 0.0065000000 0.0065000000 0.0065000000 0.0065000000 0.0065000000 0.0065000000 0.0065000000 0.0065000000 0.0065000000 0.0065000000 0.0065000000 0.0065000000 0.0065000000 0.0065000000 0.0065000000 0.0065000000 0.0065000000 0.0065000000 0.0065000000 0.0065000000 0.0065000000 0.0065000000 0.0065000000 0.0065000000 0.0065000000 0.0065000000 0.0065000000 0.0065000000 0.0065000000 0.0065000000 0.0065000000 0.0065000000 0.0065000000 0.0065000000 0.0065000000 0.0065000000 0.0065000000 0.0065000000 0.0065000000 0.0065000000 0.0065000000 0.0065000000 0.0065000000 0.0065000000 0.0065000000 0.0065000000 0.0065000000 0.0065000000 0.0065000000 0.0065000000 0.0065000000 0.0065000000 0.0065000000 0.0065000000 0.0065000000 0.0065000000 0.0065000000 0.0065000000 0.0065000000 0.0065000000 0.0065000000 0.0065000000 0.0065000000 0.0065000000 0.0065000000 0.0065000000 0.0065000000 0.0065000000 0.0065000000 0.0065000000 0.0065000000 0.0065000000 0.0065000000 0.0065000000 0.0065000000 0.0065000000 0.0065000000 0.0065000000 0.0065000000 0.0065000000 0.0065000000 0.0065000000 0.0065000000 0.0065000000 0.0065000000 0.0065000000 0.0065000000 0.0065000000 0.0065000000 0.0065000000 0.0065000000 0.0065000000 0.0065000000 0.0065000000 0.0065000000 0.0065000000 0.0065000000 0.0065000000 0.0065000000 0.0065000000 0.0065000000 0.0065000000 0.0065000000 0.0065000000 0.0065000000 0.0065000000 0.0065000000 0.0065000000 0.0065000000 0.0065000000 0.0065000000 0.0065000000 0.0065000000 0.0065000000 0.0065000000 0.0065000000 0.0065000000 0.0065000000 0.0065000000 0.0065000000 0.0065000000 0.0065000000 0.0065000000 0.0065000000 0.0065000000 0.0065000000 0.0065000000 0.0065000000 0.0065000000 0.0065000000 0.0065000000 0.0065000000 0.0065000000 0.0065000000 0.0065000000 0.0065000000 0.0065000000 0.0065000000 0.0065000000 0.0065000000 0.0065000000 0.0065000000 0.0065000000 0.0065000000 0.0065000000 0.0065000000 0.0065000000 0.0065000000 0.0065000000 0.0065000000 0.0065000000 0.0065000000 0.0065000000 0.0065000000 0.0065000000 0.0065000000 0.0065000000 0.0065000000 0.0065000000 0.0065000000 0.0065000000 0.0065000000 0.0065000000 0.0065000000 0.0065000000 0.0065000000 0.0065000000 0.0065000000 0.0065000000 0.0065000000 0.0065000000 0.0065000000 0.0065000000 0.0065000000 0.0065000000 0.0065000000 0.0065000000 0.0065000000 0.0065000000 0.0065000000 0.0065000000 0.0065000000 0.0065000000 0.0065000000 0.0065000000 0.0065000000 0.0065000000 0.0065000000 0.0065000000 0.0065000000 0.0065000000 0.0065000000 0.0065000000 0.0065000000 0.0065000000 0.0065000000 0.0065000000 0.0065000000 0.0065000000 0.0065000000 0.0065000000 0.0065000000 0.0065000000 0.0065000000 0.0065000000 0.0065000000 0.0065000000 0.0065000000 0.0065000000 0.0065000000 0.0065000000 0.0065000000 0.0065000000 0.0065000000 0.0065000000 0.0065000000 0.0065000000 0.0065000000 0.0065000000 0.0065000000 0.0065000000 0.0065000000 0.0065000000 0.0065000000 0.0065000000 0.0065000000 0.0065000000 0.0065000000 0.0065000000 0.0065000000 0.0065000000 0.0065000000 0.0065000000 0.0065000000 0.0065000000 0.0065000000 0.0065000000 0.0065000000 0.0065000000 0.0065000000 0.0065000000 0.0065000000 0.0065000000 0.0065000000 0.0065000000 0.0065000000 0.0065000000 0.0065000000 0.0065000000 0.0065000000 0.0065000000 0.0065000000 0.0065000000 0.0065000000 0.0065000000 0.0065000000 0.0065000000 0.0065000000 0.0065000000 0.0065000000 0.0065000000 0.0065000000 0.0065000000 0.0065000000 0.0065000000 0.0065000000 0.0065000000 0.0065000000 0.0065000000 0.0065000000 0.0065000000 0.0065000000 0.0065000000 0.0065000000 0.0065000000 0.0065000000 0.0065000000 0.0065000000 0.0065000000 0.0065000000 0.0065000000 0.0065000000 0.0065000000 0.0065000000 0.0065000000 0.0065000000 0.0065000000 0.0065000000 0.0065000000 0.0065000000 0.0065000000 0.0065000000 0.0065000000 0.0065000000 0.0065000000 0.0065000000 0.0065000000 0.0065000000 0.0065000000 0.0065000000 0.0065000000 0.0065000000 0.0065000000 0.0065000000 0.0065000000 0.0065000000 0.0065000000 0.0065000000 0.0065000000 0.0065000000 0.0065000000 0.0065000000 0.0065000000 0.0065000000 0.0065000000 0.0065000000 0.0065000000 0.0065000000 0.0065000000 0.0065000000 0.0065000000 0.0065000000 0.0065000000 0.0065000000 0.0065000000 0.0065000000 0.0065000000 0.0065000000 0.0065000000 0.0065000000 0.0065000000 0.0065000000 0.0065000000 0.0065000000 0.0065000000 0.0065000000 0.0065000000 0.0065000000 0.0065000000 0.0065000000 0.0065000000 0.0065000000 0.0065000000 0.0065000000 0.0065000000 0.0065000000 0.0065000000 0.0065000000 0.0065000000 0.0065000000 0.0065000000 0.0065000000 0.0065000000 0.0065000000 0.0065000000 0.0065000000 0.0065000000 0.0065000000 0.0065000000 0.0065000000 0.0065000000 0.0065000000 0.0065000000 0.0065000000 0.0065000000 0.0065000000 0.0065000000 0.0065000000 0.0065000000 0.0065000000 0.0065000000 0.0065000000 0.0065000000 0.0065000000 0.0065000000 0.0065000000 0.0065000000 0.0065000000 0.0065000000 0.0065000000 0.0065000000 0.0065000000 0.0065000000 0.0065000000 0.0065000000 0.0065000000 0.0065000000 0.0065000000 0.0065000000 0.0065000000 0.0065000000 0.0065000000 0.0065000000 0.0065000000 0.0065000000 0.0065000000 0.0065000000 0.0065000000 0.0065000000 0.0065000000 0.0065000000 0.0065000000 0.0065000000 0.0065000000 0.0065000000 0.0065000000 0.0065000000 0.0065000000 0.0065000000 0.0065000000 0.0065000000 0.0065000000 0.0065000000 0.0065000000 0.0065000000 0.0065000000 0.0065000000 0.0065000000 0.0065000000 0.0065000000 0.0065000000 0.0065000000 0.0065000000 0.0065000000 0.0065000000 0.0065000000 0.0065000000 0.0065000000 0.0065000000 0.0065000000 0.0065000000 0.0065000000 0.0065000000 0.0065000000 0.0065000000 0.0065000000 0.0065000000 0.0065000000 0.0065000000 0.0065000000 0.0065000000 0.0065000000 0.0065000000 0.0065000000 0.0065000000 0.0065000000 0.0065000000 0.0065000000 0.0065000000 0.0065000000 0.0065000000 0.0065000000 0.0065000000 0.0065000000 0.0065000000 0.0065000000 0.0065000000 0.0065000000 0.0065000000 0.0065000000 0.0065000000 0.0065000000 0.0065000000 0.0065000000 0.0065000000 0.0065000000 0.0065000000 0.0065000000 0.0065000000 0.0065000000 0.0065000000 0.0065000000 0.0065000000 0.0065000000 0.0065000000 0.0065000000 0.0065000000 0.0065000000 0.0065000000 0.0065000000 0.0065000000 0.0065000000 0.0065000000 0.0065000000 0.0065000000 0.0065000000 0.0065000000 0.0065000000 0.0065000000 0.0065000000 0.0065000000 0.0065000000 0.0065000000 0.0065000000 0.0065000000 0.0065000000 0.0065000000 0.0065000000 0.0065000000 0.0065000000 0.0065000000 0.0065000000 0.0065000000 0.0065000000 0.0065000000 0.0065000000 0.0065000000 0.0065000000 0.0065000000 0.0065000000 0.0065000000 0.0065000000 0.0065000000 0.0065000000 0.0065000000 0.0065000000 0.0065000000 0.0065000000 0.0065000000 0.0065000000 0.0065000000 0.0065000000 0.0065000000 0.0065000000 0.0065000000 0.0065000000 0.0065000000 0.0065000000 0.0065000000 0.0065000000 0.0065000000 0.0065000000 0.0065000000 0.0065000000 0.0065000000 0.0065000000 0.0065000000 0.0065000000 0.0065000000 0.0065000000 0.0065000000 0.0065000000 0.0065000000 0.0065000000 0.0065000000 0.0065000000 0.0065000000 0.0065000000 0.0065000000 0.0065000000 0.0065000000 0.0065000000 0.0065000000 0.0065000000 0.0065000000 0.0065000000 0.0065000000 0.0065000000 0.0065000000 0.0065000000 0.0065000000 0.0065000000 0.0065000000 0.0065000000 0.0065000000 0.0065000000 0.0065000000 0.0065000000 0.0065000000 0.0065000000 0.0065000000 0.0065000000 0.0065000000 0.0065000000 0.0065000000 0.0065000000 0.0065000000 0.0065000000 0.0065000000 0.0065000000 0.0065000000 0.0065000000 0.0065000000 0.0065000000 0.0065000000 0.0065000000 0.0065000000 0.0065000000 0.0065000000 0.0065000000 0.0065000000 0.0065000000 0.0065000000 0.0065000000 0.0065000000 0.0065000000 0.0065000000 0.0065000000 0.0065000000 0.0065000000 0.0065000000 0.0065000000 0.0065000000 0.0065000000 0.0065000000 0.0065000000 0.0065000000 0.0065000000 0.0065000000 0.0065000000 0.0065000000 0.0065000000 0.0065000000 0.0065000000 0.0065000000 0.0065000000 0.0065000000 0.0065000000 0.0065000000 0.0065000000 0.0065000000 0.0065000000 0.0065000000 0.0065000000 0.0065000000 0.0065000000 0.0065000000 0.0065000000 0.0065000000 0.0065000000 0.0065000000 0.0065000000 0.0065000000 0.0065000000 0.0065000000 0.0065000000 0.0065000000 0.0065000000 0.0065000000 0.0065000000 0.0065000000 0.0065000000 0.0065000000 0.0065000000 0.0065000000 0.0065000000 0.0065000000 0.0065000000 0.0065000000 0.0065000000 0.0065000000 0.0065000000 0.0065000000 0.0065000000 0.0065000000 0.0065000000 0.0065000000 0.0065000000 0.0065000000 0.0065000000 0.0065000000 0.0065000000 0.0065000000 0.0065000000 0.0065000000 0.0065000000 0.0065000000 0.0065000000 0.0065000000 0.0065000000 0.0065000000 0.0065000000 0.0065000000 0.0065000000 0.0065000000 0.0065000000 0.0065000000 0.0065000000 0.0065000000 0.0065000000 0.0065000000 0.0065000000 0.0065000000 0.0065000000 0.0065000000 0.0065000000 0.0065000000 0.0065000000 0.0065000000 0.0065000000 0.0065000000 0.0065000000 0.0065000000 0.0065000000 0.0065000000 0.0065000000 0.0065000000 0.0065000000 0.0065000000 0.0065000000 0.0065000000 0.0065000000 0.0065000000 0.0065000000 0.0065000000 0.0065000000 0.0065000000 0.0065000000 0.0065000000 0.0065000000 0.0065000000 0.0065000000 0.0065000000 0.0065000000 0.0065000000 0.0065000000 0.0065000000 0.0065000000 0.0065000000 0.0065000000 0.0065000000 0.0065000000 0.0065000000 0.0065000000 0.0065000000 0.0065000000 0.0065000000 0.0065000000 0.0065000000 0.0065000000 0.0065000000 0.0065000000 0.0065000000 0.0065000000 0.0065000000 0.0065000000 0.0065000000 0.0065000000 0.0065000000 0.0065000000 0.0065000000 0.0065000000 0.0065000000 0.0065000000 0.0065000000 0.0065000000 0.0065000000 0.0065000000 0.0065000000 0.0065000000 0.0065000000 0.0065000000 0.0065000000 0.0065000000 0.0065000000 0.0065000000 0.0065000000 0.0065000000 0.0065000000 0.0065000000 0.006500000