<?xml version="1.0"?>
<VTKFile type="UnstructuredGrid" version="0.1" byte_order="LittleEndian">
  <UnstructuredGrid>
    <FieldData>
      <DataArray type="Float32" Name="TIME"  NumberOfTuples="1" format="ascii"> 0.4496902722 </DataArray>
      <DataArray type="Int32"   Name="STEP"  NumberOfTuples="1" format="ascii"> 6030 </DataArray>
    </FieldData>
    <Piece NumberOfPoints="18081" NumberOfCells="18081">
      <Points>
        <DataArray type="Float32" NumberOfComponents="3" format="ascii">
 0.0032420141 -0.0006420336 -0.0002556054 0.0167266355 -0.0005069555 -0.0006905800 0.0332177789 0.0004557298 -0.0009302611 0.0551066627 -0.0003370471 -0.0001891329 0.0769185043 -0.0002376653 -0.0003530915 0.0992204139 -0.0004075365 0.0001546090 0.1271000771 -0.0000040912 -0.0008399425 0.1524349490 0.0011633378 -0.0007143532 0.1812641824 -0.0001667449 -0.0004735500 0.2107435074 0.0013212666 -0.0005934348 0.2435079650 0.0004299221 -0.0006407378 0.2721953941 -0.0007308364 -0.0003555220 0.3028624635 0.0000523246 -0.0010283625 0.3423985095 -0.0012138014 0.0006570468 0.3686993381 -0.0012422673 0.0000445134 0.4118748869 -0.0007111935 0.0000195775 0.4492537383 -0.0007038536 -0.0008115476 0.4946386687 0.0004229266 0.0073984574 0.5007766698 -0.0010387963 0.0392222199 0.5021851098 0.0096423116 0.0141364924 0.4982425734 -0.0019800620 0.1407859287 0.0139668092 0.0086064792 -0.0003971012 0.0247220093 0.0000682472 -0.0008507428 0.0486788291 0.0009076032 -0.0009673092 0.0784355314 0.0054199267 -0.0009044944 0.1081408460 0.0029952421 -0.0000487884 0.1392491549 0.0068236520 -0.0005634156 0.1681388281 0.0055289479 -0.0006360978 0.1908452128 0.0081108986 -0.0008804126 0.2172351327 0.0077869722 -0.0007742234 0.2504305591 0.0110294305 -0.0002757146 0.2895152088 0.0119521488 -0.0009185704 0.3175732535 0.0082354485 -0.0011016769 0.3660652809 0.0084483461 -0.0010368145 0.4152190260 0.0034572302 -0.0008914797 0.4541595579 0.0010077103 -0.0006350454 0.4811665608 0.0003348233 -0.0004440175 0.5007227066 -0.0011358916 0.0071556717 0.5005330645 0.0066251477 0.0523793498 0.5024312394 0.0048322268 0.0580242336 0.5001592411 0.0001405169 0.1137481504 0.4978906157 0.0120186746 0.1572316256 0.0102153025 0.0129668327 -0.0008030130 0.0195846917 0.0056976663 -0.0009075963 0.0289174514 0.0114291040 -0.0009591877 0.0589870403 0.0064976492 -0.0007034276 0.0909597083 0.0139499634 -0.0005687866 0.1105567102 0.0140947399 -0.0006375607 0.1439904827 0.0109650602 -0.0008180271 0.1780039564 0.0147572228 -0.0003275632 0.2134892284 0.0123928719 -0.0008889646 0.2382373669 0.0118333558 -0.0008495268 0.2718853963 0.0124301337 -0.0004417271 0.3124688132 0.0106095181 -0.0006215432 0.3485512653 0.0115532834 -0.0007749784 0.3886311777 0.0138567863 -0.0005528318 0.4323516616 0.0076489711 -0.0014910886 0.4777447540 0.0067312658 -0.0005984418 0.4996243917 0.0045837399 0.0193553006 0.5005033159 0.0145158034 0.0736151063 0.5016428694 0.0062655829 0.0810984120 0.5034826243 0.0035832131 0.1158762891 0.5017946636 0.0078521451 0.1612552136 0.0175198723 0.0170487477 -0.0006860541 0.0206646218 0.0115437621 -0.0008071347 0.0403486507 0.0183118537 -0.0010612647 0.0726768916 0.0180078467 -0.0006406473 0.1065736029 0.0197556497 -0.0007334849 0.1385485739 0.0194318629 -0.0003056408 0.1667655803 0.0157446405 -0.0002174587 0.1970578185 0.0136731836 -0.0005906266 0.2302800764 0.0158597249 -0.0009602802 0.2609109046 0.0161196115 -0.0007509426 0.2955862295 0.0124216108 -0.0003434911 0.3336383409 0.0117662131 0.0002058450 0.3697201020 0.0129402078 -0.0006218323 0.3929263586 0.0101506470 -0.0001110598 0.4494560313 0.0124442573 0.0009261282 0.4816498052 0.0100321669 0.0000927897 0.4988830358 0.0126062538 0.0082423756 0.4999365695 0.0148305298 0.0592817940 0.4913994514 0.0143268995 0.0853761258 0.4983754211 0.0168672597 0.1211643581 0.5015481848 0.0161254543 0.1611040823 0.0104819865 0.0189822239 -0.0009012364 0.0250484164 0.0169999182 -0.0007116527 0.0455034660 0.0231511270 -0.0006508399 0.0770506226 0.0208795885 -0.0005815797 0.0952068017 0.0217592089 -0.0005052101 0.1217776837 0.0173062302 -0.0003388869 0.1627893525 0.0187955666 -0.0005332985 0.1918619117 0.0168483109 -0.0006435097 0.2182670566 0.0166568518 -0.0003912646 0.2519042212 0.0166878008 -0.0008568771 0.2844414040 0.0176987907 -0.0009028310 0.3268792487 0.0199652867 -0.0008361635 0.3556324304 0.0192295804 -0.0006441232 0.3966030108 0.0130426162 -0.0006572117 0.4347014272 0.0163394430 -0.0010685254 0.4841235755 0.0146728552 -0.0005495866 0.4996364735 0.0161999779 0.0157838624 0.4984083178 0.0173581964 0.0634759277 0.5003302487 0.0179569977 0.0898145129 0.5002494911 0.0208298921 0.1236303225 0.5017405711 0.0110238242 0.1633902242 0.0163300534 0.0267226812 -0.0004519103 0.0203662526 0.0218363332 -0.0005529569 0.0421253590 0.0276006522 -0.0004752606 0.0739198342 0.0261908729 -0.0009135450 0.1043277398 0.0237792794 -0.0002695920 0.1435891205 0.0223497847 -0.0008102715 0.1703636710 0.0290573022 -0.0003015803 0.1873174961 0.0215878203 -0.0010102457 0.2134384595 0.0288253924 -0.0001588871 0.2434462153 0.0224148329 -0.0004896259 0.2709383274 0.0222357695 -0.0006134514 0.3154343411 0.0290201006 0.0004517270 0.3419578184 0.0233873627 0.0001405610 0.3831914650 0.0228701023 0.0009691926 0.4280168674 0.0204619422 -0.0002970584 0.4772833635 0.0214504765 -0.0005754583 0.4991799479 0.0277259894 0.0268181432 0.4970620995 0.0229621974 0.0651646856 0.4987662187 0.0258668815 0.0791268695 0.4964462123 0.0227854618 0.1107465781 0.5029697801 0.0312569248 0.1548762231 0.0217344226 0.0314528074 -0.0006292107 0.0275428833 0.0274138702 -0.0002344066 0.0457920816 0.0331823594 -0.0007843391 0.0848115036 0.0330224194 -0.0005768038 0.1092831953 0.0264289566 -0.0001789148 0.1360172577 0.0257833427 -0.0009533739 0.1612055791 0.0292421677 -0.0006365050 0.1920222322 0.0267764169 -0.0007404525 0.2262879906 0.0276341080 -0.0005925261 0.2483247003 0.0343923746 -0.0004548146 0.2767241695 0.0289982627 -0.0010384737 0.3200878465 0.0263911276 -0.0006120808 0.3449611508 0.0281521826 -0.0007600418 0.3870961230 0.0266386668 -0.0001560796 0.4328874752 0.0235208499 -0.0001058557 0.4833860495 0.0258556001 0.0001967465 0.4978325403 0.0278847075 0.0309306226 0.4975639363 0.0313339470 0.0593905479 0.4963045749 0.0257141658 0.0999287020 0.4936443933 0.0223119176 0.1327137912 0.4976691013 0.0189874200 0.1546594985 0.0086584258 0.0301993904 -0.0006698489 0.0310274688 0.0327931912 -0.0005852369 0.0414410745 0.0376611756 0.0006490929 0.0695548904 0.0356061848 -0.0007069992 0.1029313821 0.0311054685 -0.0009115461 0.1269397325 0.0332913905 -0.0008921194 0.1623954063 0.0357511623 -0.0008178319 0.1882714746 0.0314990454 -0.0005109991 0.2163786279 0.0337646257 -0.0003812513 0.2323111299 0.0335399045 -0.0001704794 0.2726988242 0.0305479833 0.0007231873 0.3142983049 0.0327891419 -0.0008582219 0.3362284316 0.0313038146 0.0002173234 0.3937538517 0.0303705181 -0.0005345798 0.4368593515 0.0293699563 -0.0003832168 0.4825231102 0.0315748408 0.0007045974 0.4991710599 0.0326977357 -0.0009122327 0.4972527379 0.0291254323 0.0478188669 0.5022852627 0.0254937142 0.0842175699 0.4989597529 0.0262218258 0.1351046090 0.4939012921 0.0323823275 0.1422345757 0.0141789302 0.0317258355 -0.0006795426 0.0265998644 0.0374513578 -0.0009950269 0.0473439045 0.0406481439 -0.0006582363 0.0832218962 0.0377756644 -0.0006587369 0.1062802521 0.0351602819 -0.0003486599 0.1362847833 0.0357552323 -0.0007738069 0.1578690253 0.0381947052 -0.0005961067 0.1951584072 0.0359711321 -0.0006955426 0.2220301279 0.0377829449 -0.0006641151 0.2430140002 0.0371876371 -0.0004330782 0.2807971081 0.0376024695 -0.0008463537 0.3214012497 0.0314595697 -0.0005016736 0.3428378434 0.0323313308 -0.0003899536 0.3900521589 0.0343968107 0.0025584447 0.4364490511 0.0365338224 -0.0004427436 0.4818080660 0.0362675423 -0.0004133883 0.4993787928 0.0379276994 0.0229882355 0.4969199219 0.0352573946 0.0644854997 0.4992367278 0.0409724689 0.0810749125 0.4987965225 0.0415815083 0.1333580801 0.4947098802 0.0312091320 0.1453332726 0.0106861505 0.0361735790 -0.0005161055 0.0194707783 0.0415849633 -0.0008539935 0.0354279470 0.0458363189 -0.0007602039 0.0714946742 0.0401136696 -0.0009224964 0.1099568122 0.0430876115 -0.0004002519 0.1300745367 0.0376648303 -0.0008654776 0.1646120386 0.0427172990 -0.0008071031 0.1872779138 0.0406459089 -0.0004785506 0.2165525621 0.0425381025 -0.0007813410 0.2446783860 0.0414723686 -0.0005226394 0.2731408473 0.0418570298 -0.0009791955 0.3173121651 0.0378286739 0.0001814575 0.3477148421 0.0412416518 -0.0004627496 0.3894720940 0.0388959493 0.0036802815 0.4337532767 0.0421023838 -0.0004395777 0.4816509533 0.0415233216 -0.0000643426 0.5000184000 0.0396592533 0.0104535190 0.4997220471 0.0421443492 0.0671425145 0.5030154839 0.0399596565 0.0897357188 0.4970312323 0.0416065172 0.1330485488 0.5030237885 0.0429462362 0.1632785472 0.0124453940 0.0422892874 -0.0009199232 0.0211525528 0.0458346024 -0.0005409778 0.0445772233 0.0476329897 -0.0007236305 0.0822133507 0.0439381472 -0.0009826904 0.1011773565 0.0466394896 -0.0008808437 0.1324669452 0.0445139883 -0.0007275061 0.1599128218 0.0472396119 -0.0008341704 0.1938376082 0.0411237379 -0.0007112051 0.2192734644 0.0474184760 -0.0002760344 0.2429754787 0.0469739732 -0.0010451900 0.2731599988 0.0474758939 -0.0004779266 0.3177424889 0.0418923239 -0.0000835048 0.3443236000 0.0467381849 -0.0005486465 0.3915611689 0.0435726022 0.0035359427 0.4359181670 0.0467207544 -0.0001053179 0.4816135654 0.0463377001 0.0002228093 0.4990059142 0.0461351302 0.0223666058 0.4964995255 0.0494107130 0.0549396553 0.5021596196 0.0469099348 0.0647327690 0.4988535893 0.0449739520 0.1339976777 0.5033198122 0.0382844746 0.1717344451 0.0156550064 0.0474769745 -0.0001490795 0.0200289682 0.0515367768 -0.0006168161 0.0400979257 0.0526971036 -0.0003098818 0.0737656016 0.0464581434 -0.0011353960 0.1053725330 0.0513741474 -0.0006906889 0.1363596347 0.0525334616 -0.0004297502 0.1678174501 0.0501803826 -0.0006430870 0.1896891095 0.0459671060 -0.000490860
[...]
      <PointData Scalars="smoothLength">
        <DataArray type="Float32" Name="smoothLength" format="ascii">
 0.0065000000 0.0065000000 0.0065000000 0.0065000000 0.0065000000 0.0065000000 0.0065000000 0.0065000000 0.0065000000 0.0065000000 0.0065000000 0.0065000000 0.0065000000 0.0065000000 0.0065000000 0.0065000000 0.0065000000 0.0065000000 0.0065000000 0.0065000000 0.0065000000 0.0065000000 0.0065000000 0.0065000000 0.0065000000 0.0065000000 0.0065000000 0.0065000000 0.0065000000 0.0065000000 0.0065000000 0.0065000000 0.0065000000 0.0065000000 0.0065000000 0.0065000000 0.0065000000 0.0065000000 0.0065000000 0.0065000000 0.0065000000 0.0065000000 0.0065000000 0.0065000000 0.0065000000 0.0065000000 0.0065000000 0.0065000000 0.0065000000 0.0065000000 0.0065000000 0.0065000000 0.0065000000 0.0065000000 0.0065000000 0.0065000000 0.0065000000 0.0065000000 0.0065000000 0.0065000000 0.0065000000 0.0065000000 0.0065000000 0.0065000000 0.0065000000 0.0065000000 0.0065000000 0.0065000000 0.0065000000 0.0065000000 0.0065000000 0.0065000000 0.0065000000 0.0065000000 0.0065000000 0.0065000000 0.0065000000 0.0065000000 0.0065000000 0.0065000000 0.0065000000 0.0065000000 0.0065000000 0.0065000000 0.0065000000 0.0065000000 0.0065000000 0.0065000000 0.0065000000 0.0065000000 0.0065000000 0.0065000000 0.0065000000 0.0065000000 0.0065000000 0.0065000000 0.0065000000 0.0065000000 0.0065000000 0.0065000000 0.0065000000 0.0065000000 0.0065000000 0.0065000000 0.0065000000 0.0065000000 0.0065000000 0.0065000000 0.0065000000 0.0065000000 0.0065000000 0.0065000000 0.0065000000 0.0065000000 0.0065000000 0.0065000000 0.0065000000 0.0065000000 0.0065000000 0.0065000000 0.0065000000 0.0065000000 0.0065000000 0.0065000000 0.0065000000 0.0065000000 0.0065000000 0.0065000000 0.0065000000 0.0065000000 0.0065000000 0.0065000000 0.0065000000 0.0065000000 0.0065000000 0.0065000000 0.0065000000 0.0065000000 0.0065000000 0.0065000000 0.0065000000 0.0065000000 0.0065000000 0.0065000000 0.0065000000 0.0065000000 0.0065000000 0.0065000000 0.0065000000 0.0065000000 0.0065000000 0.0065000000 0.0065000000 0.0065000000 0.0065000000 0.0065000000 0.0065000000 0.0065000000 0.0065000000 0.0065000000 0.0065000000 0.0065000000 0.0065000000 0.0065000000 0.0065000000 0.0065000000 0.0065000000 0.0065000000 0.0065000000 0.0065000000 0.0065000000 0.0065000000 0.0065000000 0.0065000000 0.0065000000 0.0065000000 0.0065000000 0.0065000000 0.0065000000 0.0065000000 0.0065000000 0.0065000000 0.0065000000 0.0065000000 0.0065000000 0.0065000000 0.0065000000 0.0065000000 0.0065000000 0.0065000000 0.0065000000 0.0065000000 0.0065000000 0.0065000000 0.0065000000 0.0065000000 0.0065000000 0.0065000000 0.0065000000 0.0065000000 0.0065000000 0.0065000000 0.0065000000 0.0065000000 0.0065000000 0.0065000000 0.0065000000 0.0065000000 0.0065000000 0.0065000000 0.0065000000 0.0065000000 0.0065000000 0.0065000000 0.0065000000 0.0065000000 0.0065000000 0.0065000000 0.0065000000 0.0065000000 0.0065000000 0.0065000000 0.0065000000 0.0065000000 0.0065000000 0.0065000000 0.0065000000 0.0065000000 0.0065000000 0.0065000000 0.0065000000 0.0065000000 0.0065000000 0.0065000000 0.0065000000 0.0065000000 0.0065000000 0.0065000000 0.0065000000 0.0065000000 0.0065000000 0.0065000000 0.0065000000 0.0065000000 0.0065000000 0.0065000000 0.0065000000 0.0065000000 0.0065000000 0.0065000000 0.0065000000 0.0065000000 0.0065000000 0.0065000000 0.0065000000 0.0065000000 0.0065000000 0.0065000000 0.0065000000 0.0065000000 0.0065000000 0.0065000000 0.0065000000 0.0065000000 0.0065000000 0.0065000000 0.0065000000 0.0065000000 0.0065000000 0.0065000000 0.0065000000 0.0065000000 0.0065000000 0.0065000000 0.0065000000 0.0065000000 0.0065000000 0.0065000000 0.0065000000 0.0065000000 0.0065000000 0.0065000000 0.0065000000 0.0065000000 0.0065000000 0.0065000000 0.0065000000 0.0065000000 0.0065000000 0.0065000000 0.0065000000 0.0065000000 0.0065000000 0.0065000000 0.0065000000 0.0065000000 0.0065000000 0.0065000000 0.0065000000 0.0065000000 0.0065000000 0.0065000000 0.0065000000 0.0065000000 0.0065000000 0.0065000000 0.0065000000 0.0065000000 0.0065000000 0.0065000000 0.0065000000 0.0065000000 0.0065000000 0.0065000000 0.0065000000 0.0065000000 0.0065000000 0.0065000000 0.0065000000 0.0065000000 0.0065000000 0.0065000000 0.0065000000 0.0065000000 0.0065000000 0.0065000000 0.0065000000 0.0065000000 0.0065000000 0.0065000000 0.0065000000 0.0065000000 0.0065000000 0.0065000000 0.0065000000 0.0065000000 0.0065000000 0.0065000000 0.0065000000 0.0065000000 0.0065000000 0.0065000000 0.0065000000 0.0065000000 0.0065000000 0.0065000000 0.0065000000 0.0065000000 0.0065000000 0.0065000000 0.0065000000 0.0065000000 0.0065000000 0.0065000000 0.0065000000 0.0065000000 0.0065000000 0.0065000000 0.0065000000 0.0065000000 0.0065000000 0.0065000000 0.0065000000 0.0065000000 0.0065000000 0.0065000000 0.0065000000 0.0065000000 0.0065000000 0.0065000000 0.0065000000 0.0065000000 0.0065000000 0.0065000000 0.0065000000 0.0065000000 0.0065000000 0.0065000000 0.0065000000 0.0065000000 0.0065000000 0.0065000000 0.0065000000 0.0065000000 0.0065000000 0.0065000000 0.0065000000 0.0065000000 0.0065000000 0.0065000000 0.0065000000 0.0065000000 0.0065000000 0.0065000000 0.0065000000 0.0065000000 0.0065000000 0.0065000000 0.0065000000 0.0065000000 0.0065000000 0.0065000000 0.0065000000 0.0065000000 0.0065000000 0.0065000000 0.0065000000 0.0065000000 0.0065000000 0.0065000000 0.0065000000 0.0065000000 0.0065000000 0.0065000000 0.0065000000 0.0065000000 0.0065000000 0.0065000000 0.0065000000 0.0065000000 0.0065000000 0.0065000000 0.0065000000 0.0065000000 0.0065000000 0.0065000000 0.0065000000 0.0065000000 0.0065000000 0.0065000000 0.0065000000 0.0065000000 0.0065000000 0.0065000000 0.0065000000 0.0065000000 0.0065000000 0.0065000000 0.0065000000 0.0065000000 0.0065000000 0.0065000000 0.0065000000 0.0065000000 0.0065000000 0.0065000000 0.0065000000 0.0065000000 0.0065000000 0.0065000000 0.0065000000 0.0065000000 0.0065000000 0.0065000000 0.0065000000 0.0065000000 0.0065000000 0.0065000000 0.0065000000 0.0065000000 0.0065000000 0.0065000000 0.0065000000 0.0065000000 0.0065000000 0.0065000000 0.0065000000 0.0065000000 0.0065000000 0.0065000000 0.0065000000 0.0065000000 0.0065000000 0.0065000000 0.0065000000 0.0065000000 0.0065000000 0.0065000000 0.0065000000 0.0065000000 0.0065000000 0.0065000000 0.0065000000 0.0065000000 0.0065000000 0.0065000000 0.0065000000 0.0065000000 0.0065000000 0.0065000000 0.0065000000 0.0065000000 0.0065000000 0.0065000000 0.0065000000 0.0065000000 0.0065000000 0.0065000000 0.0065000000 0.0065000000 0.0065000000 0.0065000000 0.0065000000 0.0065000000 0.0065000000 0.0065000000 0.0065000000 0.0065000000 0.0065000000 0.0065000000 0.0065000000 0.0065000000 0.0065000000 0.0065000000 0.0065000000 0.0065000000 0.0065000000 0.0065000000 0.0065000000 0.0065000000 0.0065000000 0.0065000000 0.0065000000 0.0065000000 0.0065000000 0.0065000000 0.0065000000 0.0065000000 0.0065000000 0.0065000000 0.0065000000 0.0065000000 0.0065000000 0.0065000000 0.0065000000 0.0065000000 0.0065000000 0.0065000000 0.0065000000 0.0065000000 0.0065000000 0.0065000000 0.0065000000 0.0065000000 0.0065000000 0.0065000000 0.0065000000 0.0065000000 0.0065000000 0.0065000000 0.0065000000 0.0065000000 0.0065000000 0.0065000000 0.0065000000 0.0065000000 0.0065000000 0.0065000000 0.0065000000 0.0065000000 0.0065000000 0.0065000000 0.0065000000 0.0065000000 0.0065000000 0.0065000000 0.0065000000 0.0065000000 0.0065000000 0.0065000000 0.0065000000 0.0065000000 0.0065000000 0.0065000000 0.0065000000 0.0065000000 0.0065000000 0.0065000000 0.0065000000 0.0065000000 0.0065000000 0.0065000000 0.0065000000 0.0065000000 0.0065000000 0.0065000000 0.0065000000 0.0065000000 0.0065000000 0.0065000000 0.0065000000 0.0065000000 0.0065000000 0.0065000000 0.0065000000 0.0065000000 0.0065000000 0.0065000000 0.0065000000 0.0065000000 0.0065000000 0.0065000000 0.0065000000 0.0065000000 0.0065000000 0.0065000000 0.0065000000 0.0065000000 0.0065000000 0.0065000000 0.0065000000 0.0065000000 0.0065000000 0.0065000000 0.0065000000 0.0065000000 0.0065000000 0.0065000000 0.0065000000 0.0065000000 0.0065000000 0.0065000000 0.0065000000 0.0065000000 0.0065000000 0.0065000000 0.0065000000 0.0065000000 0.0065000000 0.0065000000 0.0065000000 0.0065000000 0.0065000000 0.0065000000 0.0065000000 0.0065000000 0.0065000000 0.0065000000 0.0065000000 0.0065000000 0.0065000000 0.0065000000 0.0065000000 0.0065000000 0.0065000000 0.0065000000 0.0065000000 0.0065000000 0.0065000000 0.0065000000 0.0065000000 0.0065000000 0.0065000000 0.0065000000 0.0065000000 0.0065000000 0.0065000000 0.0065000000 0.0065000000 0.0065000000 0.0065000000 0.0065000000 0.0065000000 0.0065000000 0.0065000000 0.0065000000 0.0065000000 0.0065000000 0.0065000000 0.0065000000 0.0065000000 0.0065000000 0.0065000000 0.0065000000 0.0065000000 0.0065000000 0.0065000000 0.0065000000 0.0065000000 0.0065000000 0.0065000000 0.0065000000 0.0065000000 0.0065000000 0.0065000000 0.0065000000 0.0065000000 0.0065000000 0.0065000000 0.0065000000 0.0065000000 0.0065000000 0.0065000000 0.0065000000 0.0065000000 0.0065000000 0.0065000000 0.0065000000 0.0065000000 0.0065000000 0.0065000000 0.0065000000 0.0065000000 0.0065000000 0.0065000000 0.0065000000 0.0065000000 0.0065000000 0.0065000000 0.0065000000 0.0065000000 0.0065000000 0.0065000000 0.0065000000 0.0065000000 0.0065000000 0.0065000000 0.0065000000 0.0065000000 0.0065000000 0.0065000000 0.0065000000 0.0065000000 0.0065000000 0.0065000000 0.0065000000 0.0065000000 0.0065000000 0.0065000000 0.0065000000 0.0065000000 0.0065000000 0.0065000000 0.0065000000 0.0065000000 0.0065000000 0.0065000000 0.0065000000 0.0065000000 0.0065000000 0.0065000000 0.0065000000 0.0065000000 0.0065000000 0.0065000000 0.0065000000 0.0065000000 0.0065000000 0.0065000000 0.0065000000 0.0065000000 0.0065000000 0.0065000000 0.0065000000 0.0065000000 0.0065000000 0.0065000000 0.0065000000 0.0065000000 0.0065000000 0.0065000000 0.0065000000 0.0065000000 0.0065000000 0.0065000000 0.0065000000 0.0065000000 0.0065000000 0.0065000000 0.0065000000 0.0065000000 0.0065000000 0.0065000000 0.0065000000 0.0065000000 0.0065000000 0.0065000000 0.0065000000 0.0065000000 0.0065000000 0.0065000000 0.0065000000 0.0065000000 0.0065000000 0.0065000000 0.0065000000 0.0065000000 0.0065000000 0.0065000000 0.0065000000 0.0065000000 0.0065000000 0.0065000000 0.0065000000 0.0065000000 0.0065000000 0.0065000000 0.0065000000 0.0065000000 0.0065000000 0.0065000000 0.0065000000 0.0065000000 0.0065000000 0.0065000000 0.0065000000 0.0065000000 0.0065000000 0.0065000000 0.0065000000 0.0065000000 0.0065000000 0.0065000000 0.0065000000 0.0065000000 0.0065000000 0.0065000000 0.0065000000 0.0065000000 0.0065000000 0.0065000000 0.0065000000 0.0065000000 0.0065000000 0.0065000000 0.0065000000 0.0065000000 0.0065000000 0.0065000000 0.0065000000 0.0065000000 0.0065000000 0.0065000000 0.0065000000 0.0065000000 0.0065000000 0.0065000000 0.0065000000 0.0065000000 0.0065000000 0.0065000000 0.0065000000 0.0065000000 0.0065000000 0.0065000000 0.0065000000 0.0065000000 0.0065000000 0.0065000000 0.0065000000 0.0065000000 0.0065000000 0.0065000000 0.0065000000 0.0065000000 0.0065000000 0.0065000000 0.0065000000 0.0065000000 0.0065000000 0.0065000000 0.0065000000 0.0065000000 0.0065000000 0.0065000000 0.0065000000 0.0065000000 0.0065000000 0.0065000000 0.0065000000 0.0065000000 0.0065000000 0.0065000000 0.0065000000 0.0065000000 0.0065000000 0.0065000000 0.0065000000 0.0065000000 0.0065000000 0.0065000000 0.0065000000 0.0065000000 0.0065000000 0.0065000000 0.0065000000 0.0065000000 0.0065000000 0.0065000000 0.0065000000 0.0065000000 0.0065000000 0.0065000000 0.0065000000 0.0065000000 0.0065000000 0.0065000000 0.0065000000 0.0065000000 0.0065000000 0.0065000000 0.0065000000 0.0065000000 0.0065000000 0.0065000000 0.0065000000 0.0065000000 0.0065000000 0.0065000000 0.0065000000 0.0065000000 0.0065000000 0.0065000000 0.0065000000 0.0065000000 0.0065000000 0.0065000000 0.0065000000 0.0065000000 0.0065000000 0.0065000000 0.0065000000 0.0065000000 0.0065000000 0.0065000000 0.0065000000 0.0065000000 0.0065000000 0.0065000000 0.0065000000 0.0065000000 0.0065000000 0.0065000000 0.0065000000 0.0065000000 0.0065000000 0.0065000000 0.0065000000 0.0065000000 0.0065000000 0.0065000000 0.0065000000 0.0065000000 0.0065000000 0.0065000000 0.0065000000 0.0065000000 0.0065000000 0.0065000000 0.0065000000 0.0065000000 0.0065000000 0.0065000000 0.0065000000 0.0065000000 0.0065000000 0.0065000000 0.0065000000 0.0065000000 0.0065000000 0.0065000000 0.0065000000 0.0065000000 0.0065000000 0.0065000000 0.0065000000 0.0065000000 0.0065000000 0.0065000000 0.0065000000 0.0065000000 0.0065000000 0.0065000000 0.0065000000 0.0065000000 0.0065000000 0.0065000000 0.0065000000 0.0065000000 0.0065000000 0.0065000000 0.0065000000 0.0065000000 0.0065000000 0.0065000000 0.0065000000 0.0065000000 0.0065000000 0.0065000000 0.0065000000 0.0065000000 0.0065000000 0.0065000000 0.0065000000 0.0065000000 0.0065000000 0.0065000000 0.0065000000 0.0065000000 0.0065000000 0.0065000000 0.0065000000 0.0065000000 0.0065000000 0.0065000000 0.0065000000 0.0065000000 0.0065000000 0.0065000000 0.0065000000 0.0065000000 0.0065000000 0.0065000000 0.0065000000 0.0065000000 0.0065000000 0.0065000000 0.0065000000 0.0065000000 0.0065000000 0.0065000000 0.0065000000 0.0065000000 0.0065000000 0.0065000000 0.0065000000 0.0065000000 0.0065000000 0.0065000000 0.0065000000 0.0065000000 0.0065000000 0.0065000000 0.0065000000 0.0065000000 0.0065000000 0.0065000000 0.0065000000 0.0065000000 0.0065000000 0.0065000000 0.0065000000 0.0065000000 0.0065000000 0.0065000000 0.0065000000 0.0065000000 0.0065000000 0.0065000000 0.0065000000 0.0065000000 0.0065000000 0.0065000000 0.0065000000 0.0065000000 0.0065000000 0.0065000000 0.0065000000 0.0065000000 0.0065000000 0.0065000000 0.0065000000 0.0065000000 0.0065000000 0.0065000000 0.0065000000 0.0065000000 0.0065000000 0.0065000000 0.0065000000 0.0065000000 0.0065000000 0.0065000000 0.0065000000 0.0065000000 0.0065000000 0.0065000000 0.0065000000 0.0065000000 0.0065000000 0.0065000000 0.0065000000 0.0065000000 0.0065000000 0.0065000000 0.0065000000 0.0065000000 0.0065000000 0.0065000000 0.0065000000 0.0065000000 0.0065000000 0.0065000000 0.0065000000 0.0065000000 0.0065000000 0.0065000000 0.0065000000 0.0065000000 0.0065000000 0.0065000000 0.0065000000 0.0065000000 0.0065000000 0.0065000000 0.0065000000 0.0065000000 0.0065000000 0.0065000000 0.0065000000 0.0065000000 0.0065000000 0.0065000000 0.0065000000 0.0065000000 0.0065000000 0.0065000000 0.0065000000 0.0065000000 0.0065000000 0.0065000000 0.0065000000 0.0065000000 0.0065000000 0.0065000000 0.0065000000 0.0065000000 0.0065000000 0.0065000000 0.0065000000 0.0065000000 0.0065000000 0.0065000000 0.0065000000 0.0065000000 0.0065000000 0.0065000000 0.0065000000 0.0065000000 0.0065000000 0.0065000000 0.0065000000 0.0065000000 0.0065000000 0.0065000000 0.0065000000 0.0065000000 0.0065000000 0.0065000000 0.0065000000 0.0065000000 0.0065000000 0.0065000000 0.0065000000 0.0065000000 0.0065000000 0.0065000000 0.0065000000 0.0065000000 0.0065000000 0.0065000000 0.0065000000 0.0065000000 0.0065000000 0.0065000000 0.0065000000 0.0065000000 0.0065000000 0.0065000000 0.0065000000 0.0065000000 0.0065000000 0.0065000000 0.0065000000 0.0065000000 0.0065000000 0.0065000000 0.0065000000 0.0065000000 0.0065000000 0.0065000000 0.0065000000 0.0065000000 0.0065000000 0.0065000000 0.0065000000 0.0065000000 0.0065000000 0.0065000000 0.0065000000 0.0065000000 0.0065000000 0.0065000000 0.0065000000 0.0065000000 0.0065000000 0.0065000000 0.0065000000 0.0065000000 0.0065000000 0.0065000000 0.0065000000 0.0065000000 0.0065000000 0.0065000000 0.0065000000 0.0065000000 0.0065000000 0.0065000000 0.0065000000 0.0065000000 0.0065000000 0.0065000000 0.0065000000 0.0065000000 0.0065000000 0.0065000000 0.0065000000 0.0065000000 0.0065000000 0.0065000000 0.0065000000 0.0065000000 0.0065000000 0.0065000000 0.0065000000 0.0065000000 0.0065000000 0.0065000000 0.0065000000 0.0065000000 0.0065000000 0.0065000000 0.0065000000 0.0065000000 0.0065000000 0.0065000000 0.0065000000 0.0065000000 0.0065000000 0.0065000000 0.0065000000 0.0065000000 0.0065000000 0.0065000000 0.0065000000 0.0065000000 0.0065000000 0.0065000000 0.0065000000 0.0065000000 0.0065000000 0.0065000000 0.0065000000 0.0065000000 0.0065000000 0.0065000000 0.0065000000 0.0065000000 0.0065000000 0.0065000000 0.0065000000 0.0065000000 0.0065000000 0.0065000000 0.0065000000 0.0065000000 0.0065000000 0.0065000000 0.0065000000 0.0065000000 0.0065000000 0.0065000000 0.0065000000 0.0065000000 0.0065000000 0.0065000000 0.0065000000 0.0065000000 0.0065000000 0.0065000000 0.0065000000 0.0065000000 0.0065000000 0.0065000000 0.0065000000 0.0065000000 0.0065000000 0.0065000000 0.0065000000 0.0065000000 0.0065000000 0.0065000000 0.0065000000 0.0065000000 0.0065000000 0.0065000000 0.0065000000 0.0065000000 0.0065000000 0.0065000000 0.0065000000 0.0065000000 0.0065000000 0.0065000000 0.0065000000 0.0065000000 0.0065000000 0.0065000000 0.0065000000 0.0065000000 0.0065000000 0.0065000000 0.0065000000 0.0065000000 0.0065000000 0.0065000000 0.0065000000 0.0065000000 0.0065000000 0.0065000000 0.0065000000 0.0065000000 0.0065000000 0.0065000000 0.0065000000 0.0065000000 0.0065000000 0.0065000000 0.0065000000 0.0065000000 0.0065000000 0.0065000000 0.0065000000 0.0065000000 0.0065000000 0.0065000000 0.0065000000 0.0065000000 0.0065000000 0.0065000000 0.0065000000 0.0065000000 0.0065000000 0.0065000000 0.0065000000 0.0065000000 0.0065000000 0.0065000000 0.0065000000 0.0065000000 0.0065000000 0.0065000000 0.0065000000 0.0065000000 0.0065000000 0.0065000000 0.0065000000 0.0065000000 0.0065000000 0.0065000000 0.0065000000 0.0065000000 0.0065000000 0.0065000000 0.0065000000 0.0065000000 0.0065000000 0.0065000000 0.0065000000 0.0065000000 0.0065000000 0.0065000000 0.0065000000 0.0065000000 0.0065000000 0.0065000000 0.0065000000 0.0065000000 0.0065000000 0.0065000000 0.0065000000 0.0065000000 0.0065000000 0.0065000000 0.0065000000 0.0065000000 0.0065000000 0.0065000000 0.0065000000 0.0065000000 0.0065000000 0.0065000000 0.0065000000 0.0065000000 0.0065000000 0.0065000000 0.0065000000 0.0065000000 0.0065000000 0.0065000000 0.0065000000 0.0065000000 0.0065000000 0.0065000000 0.0065000000 0.0065000000 0.0065000000 0.0065000000 0.0065000000 0.0065000000 0.0065000000 0.0065000000 0.0065000000 0.0065000000 0.0065000000 0.0065000000 0.0065000000 0.0065000000 0.0065000000 0.0065000000 0.0065000000 0.0065000000 0.0065000000 0.0065000000 0.0065000000 0.0065000000 0.0065000000 0.0065000000 0.0065000000 0.0065000000 0.0065000000 0.0065000000 0.0065000000 0.0065000000 0.0065000000 0.0065000000 0.0065000000 0.0065000000 0.0065000000 0.0065000000 0.0065000000 0.0065000000 0.0065000000 0.0065000000 0.0065000000 0.0065000000 0.0065000000 0.0065000000 0.0065000000 0.0065000000 0.0065000000 0.0065000000 0.0065000000 0.0065000000 0.0065000000 0.0065000000 0.0065000000 0.0065000000 0.0065000000 0.0065000000 0.0065000000 0.0065000000 0.0065000000 0.0065000000 0.0065000000 0.0065000000 0.0065000000 0.0065000000 0.0065000000 0.0065000000 0.0065000000 0.0065000000 0.0065000000 0.0065000000 0.0065000000 0.0065000000 0.0065000000 0.0065000000 0.0065000000 0.0065000000 0.0065000000 0.0065000000 0.0065000000 0.0065000000 0.0065000000 0.0065000000 0.0065000000 0.0065000000 0.0065000000 0.0065000000 0.0065000000 0.0065000000 0.0065000000 0.0065000000 0.0065000000 0.0065000000 0.0065000000 0.0065000000 0.0065000000 0.0065000000 0.0065000000 0.0065000000 0.0065000000 0.0065000000 0.0065000000 0.0065000000 0.0065000000 0.0065000000 0.0065000000 0.0065000000 0.0065000000 0.0065000000 0.0065000000 0.0065000000 0.0065000000 0.0065000000 0.0065000000 0.0065000000 0.0065000000 0.0065000000 0.0065000000 0.0065000000 0.0065000000 0.0065000000 0.0065000000 0.0065000000 0.0065000000 0.0065000000 0.006500000