<?xml version="1.0"?>
<VTKFile type="UnstructuredGrid" version="0.1" byte_order="LittleEndian">
  <UnstructuredGrid>
    <FieldData>
      <DataArray type="Float32" Name="TIME"  NumberOfTuples="1" format="ascii"> 0.9993117161 </DataArray>
      <DataArray type="Int32"   Name="STEP"  NumberOfTuples="1" format="ascii"> 13400 </DataArray>
    </FieldData>
    <Piece NumberOfPoints="18081" NumberOfCells="18081">
      <Points>
        <DataArray type="Float32" NumberOfComponents="3" format="ascii">
 0.1238979240 0.0340993822 0.0034019733 0.1484701177 0.0248806156 -0.0012360756 0.1376056040 0.0182343767 0.0109833728 0.1844766432 0.0061985896 0.0033007845 0.2040521255 0.0213881893 0.0021206936 0.2305356233 0.0212916020 0.0007545619 0.3448744674 0.0159277460 0.0005683830 0.3543565447 0.0264955940 0.0038939668 0.3119714114 0.0104845173 0.0203247134 0.1987723022 0.0114414294 0.0106726714 0.3332118264 0.0156850732 0.0232152092 0.3806274278 0.0334431266 0.0270098933 0.4166194518 0.0313739386 0.0071708427 0.3887544731 0.0327743869 0.0216785083 0.3595144630 0.0300289130 0.0350614720 0.4147367939 0.0165951581 0.0009513293 0.3518055171 0.0099788037 0.0235215728 0.3436627973 0.0119344756 0.0232596966 0.1778899105 0.0023714208 0.0197900941 0.3345994431 0.0050353902 0.0312992934 0.3008253028 0.0259461627 0.0260686778 0.1323717722 0.0299107921 0.0001062281 0.1407347494 0.0267728671 0.0011062037 0.1248194107 0.0188711881 0.0193726664 0.1726555637 0.0087344417 0.0112817176 0.3210355661 0.0227026535 0.0003452948 0.3384070285 0.0252521105 0.0082018337 0.3356988558 0.0251916876 0.0147246485 0.3622535407 0.0140139808 0.0003905052 0.3069410800 0.0141132724 0.0248415687 0.4434391338 0.0218125127 -0.0002521928 0.4160795665 0.0304138342 0.0012124064 0.4298445250 0.0312454714 0.0023643645 0.4709540101 0.0381390248 0.0141652585 0.4019396902 0.0096141049 0.0079253631 0.3564137811 0.0205896087 0.0194654196 0.3750273961 0.0127413818 0.0031060198 0.3462937020 0.0191023838 0.0298733944 0.1832801177 0.0093134644 0.0203122599 0.1894789363 0.0001956826 0.0198706716 0.1618635129 0.0179468959 0.0121986999 0.3548470475 0.0482336746 0.0439532858 0.1406529724 0.0351469162 -0.0002880948 0.1460753902 0.0231731638 0.0005906610 0.1468888093 0.0196841851 0.0007841390 0.1513732827 0.0332919940 0.0015808127 0.1806162531 0.0147101046 -0.0003322102 0.3342261099 0.0296444826 -0.0003934712 0.3552718019 0.0335397374 0.0032553869 0.3082542030 0.0189452150 0.0208933570 0.3029959328 0.0241112454 0.0200378792 0.3525732093 0.0264117612 0.0153756154 0.4432538568 0.0146804647 -0.0001867773 0.4579572759 0.0328900292 0.0116184843 0.4741737313 0.0313189712 0.0150565952 0.3595240108 0.0363692287 0.0366521652 0.4353164056 0.0225550478 0.0093745508 0.3261201377 0.0094780713 0.0247246189 0.3289454999 0.0139120606 0.0301136514 0.3287197545 0.0158544829 0.0306544588 0.4020199639 0.0100231760 0.0197862824 0.3649021906 0.0234231563 0.0375973976 0.3210974515 0.0179441889 0.0295744939 0.1286852284 0.0360688134 0.0016417512 0.1448636771 0.0394111975 0.0001511091 0.1539921646 0.0304341988 -0.0014734997 0.1810495660 0.0066252624 0.0033646923 0.3049173881 0.0278722978 -0.0006912629 0.3423551452 0.0200670443 0.0033000703 0.3527987058 0.0308893416 0.0069585314 0.3305577159 0.0240971886 0.0205116310 0.3659828649 0.0086275940 0.0022147222 0.4855156304 0.0147202931 0.0094510980 0.4716504728 0.0359885568 0.0121619514 0.4104535145 0.0348821543 0.0140309989 0.4842505281 0.0286229683 0.0199850218 0.4158481293 0.0174563988 0.0142415798 0.3191307153 0.0204799931 0.0223316107 0.4933465377 0.0136746715 0.0227867812 0.2321728197 0.0233440318 0.0112598035 0.2917629167 0.0229030763 0.0219399039 0.2150349150 0.0179847378 0.0153529587 0.3774975648 0.0283292173 0.0373759825 0.3544658898 0.0308175591 0.0393145165 0.1191601096 0.0339201532 0.0000296272 0.1545752409 0.0237705477 -0.0020577416 0.1714947707 0.0150859928 -0.0012991043 0.1761180332 0.0157858532 0.0016598149 0.2061371311 0.0254299022 0.0015786531 0.3045237376 0.0351447064 0.0101557380 0.3393445852 0.0343798330 0.0090977195 0.3210113831 0.0266743481 0.0196318241 0.3162617872 0.0356592179 0.0217307129 0.3764921248 0.0207999317 0.0066758384 0.4984565080 0.0312192976 0.0058305467 0.4164980137 0.0318611636 0.0125880886 0.4448371511 0.0312743221 0.0105116416 0.3910678223 0.0361754305 0.0207074795 0.3606716557 0.0382301843 0.0303685373 0.2708434949 0.0254889090 0.0134627941 0.3372010396 0.0182693171 0.0224703497 0.2915013050 0.0276492172 0.0227136124 0.3969110889 0.0002713124 0.0224129006 0.3404765475 0.0335766791 0.0340148345 0.3778462652 0.0320884304 0.0317499388 0.1282552117 0.0317905170 -0.0003981468 0.1399499627 0.0371854043 0.0062821069 0.1597749731 0.0229983094 -0.0005443056 0.1697669128 0.0313906747 0.0021829209 0.1716802383 0.0193710392 0.0017377401 0.3237302667 0.0335048687 0.0020982603 0.3521640169 0.0284555174 0.0000645313 0.3677703954 0.0290577203 -0.0013140938 0.3217259700 0.0309923560 0.0215795328 0.3481349511 0.0198069657 0.0189183217 0.3982644778 0.0326631509 0.0103071946 0.4013367214 0.0368161685 0.0164163173 0.3819945125 0.0522618717 0.0217940830 0.4980354315 0.0465974158 0.0161877640 0.4212877613 0.0252832309 0.0066558057 0.2836808741 0.0182417512 0.0185869806 0.3347833523 0.0217839173 0.0214874391 0.1733641349 0.0272378005 0.0164163926 0.2094191753 0.0332075190 0.0162621310 0.3470125853 0.0404809782 0.0373095495 0.3496886643 0.0327642355 0.0366630703 0.1241439956 0.0448320222 0.0000952087 0.1543871854 0.0445487659 0.0012777911 0.1774448925 0.0219579757 -0.0008204825 0.1856779376 0.0319349527 0.0082507410 0.2127202941 0.0418382015 0.0002566644 0.3233705870 0.0303689417 0.0064029762 0.3662206697 0.0340013270 -0.0003369637 0.3239309626 0.0379616190 0.0181740241 0.3408628610 0.0244333622 0.0206112106 0.4919241790 0.0280120556 0.0048556158 0.3948613399 0.0334069535 0.0038459338 0.4547494388 0.0511055800 0.0102143039 0.3976420711 0.0512867504 0.0156858317 0.4542031422 0.0349535847 0.0113895571 0.3418550675 0.0454063602 0.0328597565 0.3414405318 0.0477660065 0.0379208119 0.2524864328 0.0222278580 0.0086787944 0.3062681347 0.0235883490 0.0246691271 0.1330896337 0.0236831026 0.0246574784 0.3764499207 0.0425240275 0.0427471783 0.2280374529 0.0276976117 0.0132605422 0.1336148600 0.0435558988 0.0000202073 0.1514793124 0.0370311781 0.0031929638 0.1613199709 0.0484692653 0.0070017997 0.1613192408 0.0250832136 0.0043341176 0.1869698077 0.0411327376 0.0007186977 0.3112887169 0.0451280998 0.0095580983 0.3572810177 0.0378967896 0.0000842598 0.3422587599 0.0387879514 0.0213814054 0.3369809690 0.0395228548 0.0212979714 0.3269216143 0.0373757134 0.0245362386 0.4010939400 0.0438275065 0.0163919078 0.4241699196 0.0438508890 0.0061895782 0.4145524304 0.0416559498 0.0121365782 0.3455577557 0.0392329979 0.0253895092 0.4184556527 0.0477566363 0.0129943500 0.3392200434 0.0509138386 0.0386364029 0.1999931082 0.0328588457 0.0158025382 0.1412494434 0.0331320128 0.0197998875 0.4176597562 0.0351823906 0.0147852251 0.2528443447 0.0443434633 0.0105285778 0.3115713911 0.0513027524 0.0287483222 0.1325360404 0.0491327948 0.0000598606 0.1584034442 0.0561923217 0.0033761445 0.1568171657 0.0262998303 0.0044947772 0.1803429390 0.0289639615 -0.0006873577 0.1810704893 0.0404910608 0.0028898035 0.3329101499 0.0398273772 -0.0004113697 0.3561076422 0.0366981533 0.0129463344 0.3489134493 0.0348115661 0.0204368546 0.3558949381 0.0328327743 0.0192499233 0.3210348671 0.0349480641 0.0250055308 0.3802088651 0.0425938444 0.0139397301 0.4915951925 0.0530733508 0.0174184622 0.4012771198 0.0588994602 0.0146642802 0.4473161337 0.0489877899 0.0100123478 0.3360394282 0.0582170186 0.0337687669 0.3475131715 0.0534871935 0.0267818476 0.3299981461 0.0541471553 0.0350272628 0.3382306808 0.0398649583 0.0352728264 0.3447811172 0.0531321353 0.0421210810 0.3669982490 0.0636150018 0.0441015529 0.1939359734 0.0299528345 0.0185964061 0.1349068225 0.0522423804 0.0003576745 0.1661956265 0.0536110812 -0.0001901502 0.1832267132 0.0537504955 0.0019990378 0.1775715544 0.0341676562 -0.0001194240 0.1400354986 0.0309157066 0.0120362487 0.3334158907 0.0513006562 -0.0006289384 0.3591303425 0.0449279237 0.0046767190 0.3636697811 0.0428963870 0.0059693535 0.3735930230 0.0399298180 0.0006749497 0.3538314961 0.0363672219 0.0243675588 0.4581176503 0.0410495788 0.0056678541 0.4305253051 0.0543079213 0.0096006060 0.4822681695 0.0576026647 0.0160652058 0.4563701582 0.0524751454 0.0042396500 0.3740771954 0.0604789847 0.0297407559 0.3507447617 0.0574542436 0.0397801910 0.2743041172 0.0674328801 0.0158835116 0.3060260708 0.0453791501 0.0261523339 0.3142136514 0.0554462109 0.0295535591 0.1569350097 0.0728619866 0.0203401226 0.2226408910 0.0573975374 0.0165043698 0.1511984135 0.0563521496 -0.0003192543 0.1664402013 0.0583035310 -0.0014493306 0.1779268889 0.0695477459 -0.0009058617 0.1858598048 0.0600601984 -0.0001122511 0.1866316420 0.0473818384 0.0129674078 0.3262254797 0.0527872536 0.0006395597 0.3492988322 0.0513990092 0.0172836148 0.3227194391 0.0499685020 0.0153804764 0.3020927240 0.0431115311 0.0211532377 0.3733408569 0.0341727235 0.0061650803 0.4251472180 0.0534740151 0.0110587123 0.4367495329 0.0579882204 0.0110023199 0.4545133622 0.0639459233 0.0110658406 0.4084832166 0.0614342509 0.0136924889 0.3233423283 0.0508921190 0.0216278878 0.4871961119 0.0577249346 0.0175705858 0.2957078276 0.0594054395 0.0241961719 0.1477455678 0.0576453973 0.0230255273 0.3126660540 0.0590320649 0.0279271706 0.1577470675 0.0667423345 0.0194446985 0.2726727333 0.0492059923 0.0178964700 0.1331446487 0.0590806438 0.0050632111 0.1583239059 0.0605263285 0.0047551819 0.1719381213 0.0754250048 0.0025540688 0.1877134632 0.0538777223 -0.0010661440 0.1752283399 0.0535829725 0.0066422311 0.3304431163 0.0562640779 -0.0006757296 0.3541180882 0.0512280145 0.0127000294 0.3334724863 0.0508228160 0.0190168684 0.2596615558 0.0450466667 0.0121367824 0.3589483160 0.0623471089 0.0115580677 0.4136647298 0.0627814119 0.0089507427 0.4889690364 0.0701282604 0.0170694
[...]
      <PointData Scalars="smoothLength">
        <DataArray type="Float32" Name="smoothLength" format="ascii">
 0.0065000000 0.0065000000 0.0065000000 0.0065000000 0.0065000000 0.0065000000 0.0065000000 0.0065000000 0.0065000000 0.0065000000 0.0065000000 0.0065000000 0.0065000000 0.0065000000 0.0065000000 0.0065000000 0.0065000000 0.0065000000 0.0065000000 0.0065000000 0.0065000000 0.0065000000 0.0065000000 0.0065000000 0.0065000000 0.0065000000 0.0065000000 0.0065000000 0.0065000000 0.0065000000 0.0065000000 0.0065000000 0.0065000000 0.0065000000 0.0065000000 0.0065000000 0.0065000000 0.0065000000 0.0065000000 0.0065000000 0.0065000000 0.0065000000 0.0065000000 0.0065000000 0.0065000000 0.0065000000 0.0065000000 0.0065000000 0.0065000000 0.0065000000 0.0065000000 0.0065000000 0.0065000000 0.0065000000 0.0065000000 0.0065000000 0.0065000000 0.0065000000 0.0065000000 0.0065000000 0.0065000000 0.0065000000 0.0065000000 0.0065000000 0.0065000000 0.0065000000 0.0065000000 0.0065000000 0.0065000000 0.0065000000 0.0065000000 0.0065000000 0.0065000000 0.0065000000 0.0065000000 0.0065000000 0.0065000000 0.0065000000 0.0065000000 0.0065000000 0.0065000000 0.0065000000 0.0065000000 0.0065000000 0.0065000000 0.0065000000 0.0065000000 0.0065000000 0.0065000000 0.0065000000 0.0065000000 0.0065000000 0.0065000000 0.0065000000 0.0065000000 0.0065000000 0.0065000000 0.0065000000 0.0065000000 0.0065000000 0.0065000000 0.0065000000 0.0065000000 0.0065000000 0.0065000000 0.0065000000 0.0065000000 0.0065000000 0.0065000000 0.0065000000 0.0065000000 0.0065000000 0.0065000000 0.0065000000 0.0065000000 0.0065000000 0.0065000000 0.0065000000 0.0065000000 0.0065000000 0.0065000000 0.0065000000 0.0065000000 0.0065000000 0.0065000000 0.0065000000 0.0065000000 0.0065000000 0.0065000000 0.0065000000 0.0065000000 0.0065000000 0.0065000000 0.0065000000 0.0065000000 0.0065000000 0.0065000000 0.0065000000 0.0065000000 0.0065000000 0.0065000000 0.0065000000 0.0065000000 0.0065000000 0.0065000000 0.0065000000 0.0065000000 0.0065000000 0.0065000000 0.0065000000 0.0065000000 0.0065000000 0.0065000000 0.0065000000 0.0065000000 0.0065000000 0.0065000000 0.0065000000 0.0065000000 0.0065000000 0.0065000000 0.0065000000 0.0065000000 0.0065000000 0.0065000000 0.0065000000 0.0065000000 0.0065000000 0.0065000000 0.0065000000 0.0065000000 0.0065000000 0.0065000000 0.0065000000 0.0065000000 0.0065000000 0.0065000000 0.0065000000 0.0065000000 0.0065000000 0.0065000000 0.0065000000 0.0065000000 0.0065000000 0.0065000000 0.0065000000 0.0065000000 0.0065000000 0.0065000000 0.0065000000 0.0065000000 0.0065000000 0.0065000000 0.0065000000 0.0065000000 0.0065000000 0.0065000000 0.0065000000 0.0065000000 0.0065000000 0.0065000000 0.0065000000 0.0065000000 0.0065000000 0.0065000000 0.0065000000 0.0065000000 0.0065000000 0.0065000000 0.0065000000 0.0065000000 0.0065000000 0.0065000000 0.0065000000 0.0065000000 0.0065000000 0.0065000000 0.0065000000 0.0065000000 0.0065000000 0.0065000000 0.0065000000 0.0065000000 0.0065000000 0.0065000000 0.0065000000 0.0065000000 0.0065000000 0.0065000000 0.0065000000 0.0065000000 0.0065000000 0.0065000000 0.0065000000 0.0065000000 0.0065000000 0.0065000000 0.0065000000 0.0065000000 0.0065000000 0.0065000000 0.0065000000 0.0065000000 0.0065000000 0.0065000000 0.0065000000 0.0065000000 0.0065000000 0.0065000000 0.0065000000 0.0065000000 0.0065000000 0.0065000000 0.0065000000 0.0065000000 0.0065000000 0.0065000000 0.0065000000 0.0065000000 0.0065000000 0.0065000000 0.0065000000 0.0065000000 0.0065000000 0.0065000000 0.0065000000 0.0065000000 0.0065000000 0.0065000000 0.0065000000 0.0065000000 0.0065000000 0.0065000000 0.0065000000 0.0065000000 0.0065000000 0.0065000000 0.0065000000 0.0065000000 0.0065000000 0.0065000000 0.0065000000 0.0065000000 0.0065000000 0.0065000000 0.0065000000 0.0065000000 0.0065000000 0.0065000000 0.0065000000 0.0065000000 0.0065000000 0.0065000000 0.0065000000 0.0065000000 0.0065000000 0.0065000000 0.0065000000 0.0065000000 0.0065000000 0.0065000000 0.0065000000 0.0065000000 0.0065000000 0.0065000000 0.0065000000 0.0065000000 0.0065000000 0.0065000000 0.0065000000 0.0065000000 0.0065000000 0.0065000000 0.0065000000 0.0065000000 0.0065000000 0.0065000000 0.0065000000 0.0065000000 0.0065000000 0.0065000000 0.0065000000 0.0065000000 0.0065000000 0.0065000000 0.0065000000 0.0065000000 0.0065000000 0.0065000000 0.0065000000 0.0065000000 0.0065000000 0.0065000000 0.0065000000 0.0065000000 0.0065000000 0.0065000000 0.0065000000 0.0065000000 0.0065000000 0.0065000000 0.0065000000 0.0065000000 0.0065000000 0.0065000000 0.0065000000 0.0065000000 0.0065000000 0.0065000000 0.0065000000 0.0065000000 0.0065000000 0.0065000000 0.0065000000 0.0065000000 0.0065000000 0.0065000000 0.0065000000 0.0065000000 0.0065000000 0.0065000000 0.0065000000 0.0065000000 0.0065000000 0.0065000000 0.0065000000 0.0065000000 0.0065000000 0.0065000000 0.0065000000 0.0065000000 0.0065000000 0.0065000000 0.0065000000 0.0065000000 0.0065000000 0.0065000000 0.0065000000 0.0065000000 0.0065000000 0.0065000000 0.0065000000 0.0065000000 0.0065000000 0.0065000000 0.0065000000 0.0065000000 0.0065000000 0.0065000000 0.0065000000 0.0065000000 0.0065000000 0.0065000000 0.0065000000 0.0065000000 0.0065000000 0.0065000000 0.0065000000 0.0065000000 0.0065000000 0.0065000000 0.0065000000 0.0065000000 0.0065000000 0.0065000000 0.0065000000 0.0065000000 0.0065000000 0.0065000000 0.0065000000 0.0065000000 0.0065000000 0.0065000000 0.0065000000 0.0065000000 0.0065000000 0.0065000000 0.0065000000 0.0065000000 0.0065000000 0.0065000000 0.0065000000 0.0065000000 0.0065000000 0.0065000000 0.0065000000 0.0065000000 0.0065000000 0.0065000000 0.0065000000 0.0065000000 0.0065000000 0.0065000000 0.0065000000 0.0065000000 0.0065000000 0.0065000000 0.0065000000 0.0065000000 0.0065000000 0.0065000000 0.0065000000 0.0065000000 0.0065000000 0.0065000000 0.0065000000 0.0065000000 0.0065000000 0.0065000000 0.0065000000 0.0065000000 0.0065000000 0.0065000000 0.0065000000 0.0065000000 0.0065000000 0.0065000000 0.0065000000 0.0065000000 0.0065000000 0.0065000000 0.0065000000 0.0065000000 0.0065000000 0.0065000000 0.0065000000 0.0065000000 0.0065000000 0.0065000000 0.0065000000 0.0065000000 0.0065000000 0.0065000000 0.0065000000 0.0065000000 0.0065000000 0.0065000000 0.0065000000 0.0065000000 0.0065000000 0.0065000000 0.0065000000 0.0065000000 0.0065000000 0.0065000000 0.0065000000 0.0065000000 0.0065000000 0.0065000000 0.0065000000 0.0065000000 0.0065000000 0.0065000000 0.0065000000 0.0065000000 0.0065000000 0.0065000000 0.0065000000 0.0065000000 0.0065000000 0.0065000000 0.0065000000 0.0065000000 0.0065000000 0.0065000000 0.0065000000 0.0065000000 0.0065000000 0.0065000000 0.0065000000 0.0065000000 0.0065000000 0.0065000000 0.0065000000 0.0065000000 0.0065000000 0.0065000000 0.0065000000 0.0065000000 0.0065000000 0.0065000000 0.0065000000 0.0065000000 0.0065000000 0.0065000000 0.0065000000 0.0065000000 0.0065000000 0.0065000000 0.0065000000 0.0065000000 0.0065000000 0.0065000000 0.0065000000 0.0065000000 0.0065000000 0.0065000000 0.0065000000 0.0065000000 0.0065000000 0.0065000000 0.0065000000 0.0065000000 0.0065000000 0.0065000000 0.0065000000 0.0065000000 0.0065000000 0.0065000000 0.0065000000 0.0065000000 0.0065000000 0.0065000000 0.0065000000 0.0065000000 0.0065000000 0.0065000000 0.0065000000 0.0065000000 0.0065000000 0.0065000000 0.0065000000 0.0065000000 0.0065000000 0.0065000000 0.0065000000 0.0065000000 0.0065000000 0.0065000000 0.0065000000 0.0065000000 0.0065000000 0.0065000000 0.0065000000 0.0065000000 0.0065000000 0.0065000000 0.0065000000 0.0065000000 0.0065000000 0.0065000000 0.0065000000 0.0065000000 0.0065000000 0.0065000000 0.0065000000 0.0065000000 0.0065000000 0.0065000000 0.0065000000 0.0065000000 0.0065000000 0.0065000000 0.0065000000 0.0065000000 0.0065000000 0.0065000000 0.0065000000 0.0065000000 0.0065000000 0.0065000000 0.0065000000 0.0065000000 0.0065000000 0.0065000000 0.0065000000 0.0065000000 0.0065000000 0.0065000000 0.0065000000 0.0065000000 0.0065000000 0.0065000000 0.0065000000 0.0065000000 0.0065000000 0.0065000000 0.0065000000 0.0065000000 0.0065000000 0.0065000000 0.0065000000 0.0065000000 0.0065000000 0.0065000000 0.0065000000 0.0065000000 0.0065000000 0.0065000000 0.0065000000 0.0065000000 0.0065000000 0.0065000000 0.0065000000 0.0065000000 0.0065000000 0.0065000000 0.0065000000 0.0065000000 0.0065000000 0.0065000000 0.0065000000 0.0065000000 0.0065000000 0.0065000000 0.0065000000 0.0065000000 0.0065000000 0.0065000000 0.0065000000 0.0065000000 0.0065000000 0.0065000000 0.0065000000 0.0065000000 0.0065000000 0.0065000000 0.0065000000 0.0065000000 0.0065000000 0.0065000000 0.0065000000 0.0065000000 0.0065000000 0.0065000000 0.0065000000 0.0065000000 0.0065000000 0.0065000000 0.0065000000 0.0065000000 0.0065000000 0.0065000000 0.0065000000 0.0065000000 0.0065000000 0.0065000000 0.0065000000 0.0065000000 0.0065000000 0.0065000000 0.0065000000 0.0065000000 0.0065000000 0.0065000000 0.0065000000 0.0065000000 0.0065000000 0.0065000000 0.0065000000 0.0065000000 0.0065000000 0.0065000000 0.0065000000 0.0065000000 0.0065000000 0.0065000000 0.0065000000 0.0065000000 0.0065000000 0.0065000000 0.0065000000 0.0065000000 0.0065000000 0.0065000000 0.0065000000 0.0065000000 0.0065000000 0.0065000000 0.0065000000 0.0065000000 0.0065000000 0.0065000000 0.0065000000 0.0065000000 0.0065000000 0.0065000000 0.0065000000 0.0065000000 0.0065000000 0.0065000000 0.0065000000 0.0065000000 0.0065000000 0.0065000000 0.0065000000 0.0065000000 0.0065000000 0.0065000000 0.0065000000 0.0065000000 0.0065000000 0.0065000000 0.0065000000 0.0065000000 0.0065000000 0.0065000000 0.0065000000 0.0065000000 0.0065000000 0.0065000000 0.0065000000 0.0065000000 0.0065000000 0.0065000000 0.0065000000 0.0065000000 0.0065000000 0.0065000000 0.0065000000 0.0065000000 0.0065000000 0.0065000000 0.0065000000 0.0065000000 0.0065000000 0.0065000000 0.0065000000 0.0065000000 0.0065000000 0.0065000000 0.0065000000 0.0065000000 0.0065000000 0.0065000000 0.0065000000 0.0065000000 0.0065000000 0.0065000000 0.0065000000 0.0065000000 0.0065000000 0.0065000000 0.0065000000 0.0065000000 0.0065000000 0.0065000000 0.0065000000 0.0065000000 0.0065000000 0.0065000000 0.0065000000 0.0065000000 0.0065000000 0.0065000000 0.0065000000 0.0065000000 0.0065000000 0.0065000000 0.0065000000 0.0065000000 0.0065000000 0.0065000000 0.0065000000 0.0065000000 0.0065000000 0.0065000000 0.0065000000 0.0065000000 0.0065000000 0.0065000000 0.0065000000 0.0065000000 0.0065000000 0.0065000000 0.0065000000 0.0065000000 0.0065000000 0.0065000000 0.0065000000 0.0065000000 0.0065000000 0.0065000000 0.0065000000 0.0065000000 0.0065000000 0.0065000000 0.0065000000 0.0065000000 0.0065000000 0.0065000000 0.0065000000 0.0065000000 0.0065000000 0.0065000000 0.0065000000 0.0065000000 0.0065000000 0.0065000000 0.0065000000 0.0065000000 0.0065000000 0.0065000000 0.0065000000 0.0065000000 0.0065000000 0.0065000000 0.0065000000 0.0065000000 0.0065000000 0.0065000000 0.0065000000 0.0065000000 0.0065000000 0.0065000000 0.0065000000 0.0065000000 0.0065000000 0.0065000000 0.0065000000 0.0065000000 0.0065000000 0.0065000000 0.0065000000 0.0065000000 0.0065000000 0.0065000000 0.0065000000 0.0065000000 0.0065000000 0.0065000000 0.0065000000 0.0065000000 0.0065000000 0.0065000000 0.0065000000 0.0065000000 0.0065000000 0.0065000000 0.0065000000 0.0065000000 0.0065000000 0.0065000000 0.0065000000 0.0065000000 0.0065000000 0.0065000000 0.0065000000 0.0065000000 0.0065000000 0.0065000000 0.0065000000 0.0065000000 0.0065000000 0.0065000000 0.0065000000 0.0065000000 0.0065000000 0.0065000000 0.0065000000 0.0065000000 0.0065000000 0.0065000000 0.0065000000 0.0065000000 0.0065000000 0.0065000000 0.0065000000 0.0065000000 0.0065000000 0.0065000000 0.0065000000 0.0065000000 0.0065000000 0.0065000000 0.0065000000 0.0065000000 0.0065000000 0.0065000000 0.0065000000 0.0065000000 0.0065000000 0.0065000000 0.0065000000 0.0065000000 0.0065000000 0.0065000000 0.0065000000 0.0065000000 0.0065000000 0.0065000000 0.0065000000 0.0065000000 0.0065000000 0.0065000000 0.0065000000 0.0065000000 0.0065000000 0.0065000000 0.0065000000 0.0065000000 0.0065000000 0.0065000000 0.0065000000 0.0065000000 0.0065000000 0.0065000000 0.0065000000 0.0065000000 0.0065000000 0.0065000000 0.0065000000 0.0065000000 0.0065000000 0.0065000000 0.0065000000 0.0065000000 0.0065000000 0.0065000000 0.0065000000 0.0065000000 0.0065000000 0.0065000000 0.0065000000 0.0065000000 0.0065000000 0.0065000000 0.0065000000 0.0065000000 0.0065000000 0.0065000000 0.0065000000 0.0065000000 0.0065000000 0.0065000000 0.0065000000 0.0065000000 0.0065000000 0.0065000000 0.0065000000 0.0065000000 0.0065000000 0.0065000000 0.0065000000 0.0065000000 0.0065000000 0.0065000000 0.0065000000 0.0065000000 0.0065000000 0.0065000000 0.0065000000 0.0065000000 0.0065000000 0.0065000000 0.0065000000 0.0065000000 0.0065000000 0.0065000000 0.0065000000 0.0065000000 0.0065000000 0.0065000000 0.0065000000 0.0065000000 0.0065000000 0.0065000000 0.0065000000 0.0065000000 0.0065000000 0.0065000000 0.0065000000 0.0065000000 0.0065000000 0.0065000000 0.0065000000 0.0065000000 0.0065000000 0.0065000000 0.0065000000 0.0065000000 0.0065000000 0.0065000000 0.0065000000 0.0065000000 0.0065000000 0.0065000000 0.0065000000 0.0065000000 0.0065000000 0.0065000000 0.0065000000 0.0065000000 0.0065000000 0.0065000000 0.0065000000 0.0065000000 0.0065000000 0.0065000000 0.0065000000 0.0065000000 0.0065000000 0.0065000000 0.0065000000 0.0065000000 0.0065000000 0.0065000000 0.0065000000 0.0065000000 0.0065000000 0.0065000000 0.0065000000 0.0065000000 0.0065000000 0.0065000000 0.0065000000 0.0065000000 0.0065000000 0.0065000000 0.0065000000 0.0065000000 0.0065000000 0.0065000000 0.0065000000 0.0065000000 0.0065000000 0.0065000000 0.0065000000 0.0065000000 0.0065000000 0.0065000000 0.0065000000 0.0065000000 0.0065000000 0.0065000000 0.0065000000 0.0065000000 0.0065000000 0.0065000000 0.0065000000 0.0065000000 0.0065000000 0.0065000000 0.0065000000 0.0065000000 0.0065000000 0.0065000000 0.0065000000 0.0065000000 0.0065000000 0.0065000000 0.0065000000 0.0065000000 0.0065000000 0.0065000000 0.0065000000 0.0065000000 0.0065000000 0.0065000000 0.0065000000 0.0065000000 0.0065000000 0.0065000000 0.0065000000 0.0065000000 0.0065000000 0.0065000000 0.0065000000 0.0065000000 0.0065000000 0.0065000000 0.0065000000 0.0065000000 0.0065000000 0.0065000000 0.0065000000 0.0065000000 0.0065000000 0.0065000000 0.0065000000 0.0065000000 0.0065000000 0.0065000000 0.0065000000 0.0065000000 0.0065000000 0.0065000000 0.0065000000 0.0065000000 0.0065000000 0.0065000000 0.0065000000 0.0065000000 0.0065000000 0.0065000000 0.0065000000 0.0065000000 0.0065000000 0.0065000000 0.0065000000 0.0065000000 0.0065000000 0.0065000000 0.0065000000 0.0065000000 0.0065000000 0.0065000000 0.0065000000 0.0065000000 0.0065000000 0.0065000000 0.0065000000 0.0065000000 0.0065000000 0.0065000000 0.0065000000 0.0065000000 0.0065000000 0.0065000000 0.0065000000 0.0065000000 0.0065000000 0.0065000000 0.0065000000 0.0065000000 0.0065000000 0.0065000000 0.0065000000 0.0065000000 0.0065000000 0.0065000000 0.0065000000 0.0065000000 0.0065000000 0.0065000000 0.0065000000 0.0065000000 0.0065000000 0.0065000000 0.0065000000 0.0065000000 0.0065000000 0.0065000000 0.0065000000 0.0065000000 0.0065000000 0.0065000000 0.0065000000 0.0065000000 0.0065000000 0.0065000000 0.0065000000 0.0065000000 0.0065000000 0.0065000000 0.0065000000 0.0065000000 0.0065000000 0.0065000000 0.0065000000 0.0065000000 0.0065000000 0.0065000000 0.0065000000 0.0065000000 0.0065000000 0.0065000000 0.0065000000 0.0065000000 0.0065000000 0.0065000000 0.0065000000 0.0065000000 0.0065000000 0.0065000000 0.0065000000 0.0065000000 0.0065000000 0.0065000000 0.0065000000 0.0065000000 0.0065000000 0.0065000000 0.0065000000 0.0065000000 0.0065000000 0.0065000000 0.0065000000 0.0065000000 0.0065000000 0.0065000000 0.0065000000 0.0065000000 0.0065000000 0.0065000000 0.0065000000 0.0065000000 0.0065000000 0.0065000000 0.0065000000 0.0065000000 0.0065000000 0.0065000000 0.0065000000 0.0065000000 0.0065000000 0.0065000000 0.0065000000 0.0065000000 0.0065000000 0.0065000000 0.0065000000 0.0065000000 0.0065000000 0.0065000000 0.0065000000 0.0065000000 0.0065000000 0.0065000000 0.0065000000 0.0065000000 0.0065000000 0.0065000000 0.0065000000 0.0065000000 0.0065000000 0.0065000000 0.0065000000 0.0065000000 0.0065000000 0.0065000000 0.0065000000 0.0065000000 0.0065000000 0.0065000000 0.0065000000 0.0065000000 0.0065000000 0.0065000000 0.0065000000 0.0065000000 0.0065000000 0.0065000000 0.0065000000 0.0065000000 0.0065000000 0.0065000000 0.0065000000 0.0065000000 0.0065000000 0.0065000000 0.0065000000 0.0065000000 0.0065000000 0.0065000000 0.0065000000 0.0065000000 0.0065000000 0.0065000000 0.0065000000 0.0065000000 0.0065000000 0.0065000000 0.0065000000 0.0065000000 0.0065000000 0.0065000000 0.0065000000 0.0065000000 0.0065000000 0.0065000000 0.0065000000 0.0065000000 0.0065000000 0.0065000000 0.0065000000 0.0065000000 0.0065000000 0.0065000000 0.0065000000 0.0065000000 0.0065000000 0.0065000000 0.0065000000 0.0065000000 0.0065000000 0.0065000000 0.0065000000 0.0065000000 0.0065000000 0.0065000000 0.0065000000 0.0065000000 0.0065000000 0.0065000000 0.0065000000 0.0065000000 0.0065000000 0.0065000000 0.0065000000 0.0065000000 0.0065000000 0.0065000000 0.0065000000 0.0065000000 0.0065000000 0.0065000000 0.0065000000 0.0065000000 0.0065000000 0.0065000000 0.0065000000 0.0065000000 0.0065000000 0.0065000000 0.0065000000 0.0065000000 0.0065000000 0.0065000000 0.0065000000 0.0065000000 0.0065000000 0.0065000000 0.0065000000 0.0065000000 0.0065000000 0.0065000000 0.0065000000 0.0065000000 0.0065000000 0.0065000000 0.0065000000 0.0065000000 0.0065000000 0.0065000000 0.0065000000 0.0065000000 0.0065000000 0.0065000000 0.0065000000 0.0065000000 0.0065000000 0.0065000000 0.0065000000 0.0065000000 0.0065000000 0.0065000000 0.0065000000 0.0065000000 0.0065000000 0.0065000000 0.0065000000 0.0065000000 0.0065000000 0.0065000000 0.0065000000 0.0065000000 0.0065000000 0.0065000000 0.0065000000 0.0065000000 0.0065000000 0.0065000000 0.0065000000 0.0065000000 0.0065000000 0.0065000000 0.0065000000 0.0065000000 0.0065000000 0.0065000000 0.0065000000 0.0065000000 0.0065000000 0.0065000000 0.0065000000 0.0065000000 0.0065000000 0.0065000000 0.0065000000 0.0065000000 0.0065000000 0.0065000000 0.0065000000 0.0065000000 0.0065000000 0.0065000000 0.0065000000 0.0065000000 0.0065000000 0.0065000000 0.0065000000 0.0065000000 0.0065000000 0.0065000000 0.0065000000 0.0065000000 0.0065000000 0.0065000000 0.0065000000 0.0065000000 0.0065000000 0.0065000000 0.0065000000 0.0065000000 0.0065000000 0.0065000000 0.0065000000 0.0065000000 0.0065000000 0.0065000000 0.0065000000 0.0065000000 0.0065000000 0.0065000000 0.0065000000 0.0065000000 0.0065000000 0.0065000000 0.0065000000 0.0065000000 0.0065000000 0.0065000000 0.0065000000 0.0065000000 0.0065000000 0.0065000000 0.0065000000 0.0065000000 0.0065000000 0.0065000000 0.0065000000 0.0065000000 0.0065000000 0.0065000000 0.0065000000 0.0065000000 0.0065000000 0.0065000000 0.0065000000 0.0065000000 0.0065000000 0.0065000000 0.0065000000 0.0065000000 0.0065000000 0.0065000000 0.0065000000 0.0065000000 0.0065000000 0.0065000000 0.0065000000 0.0065000000 0.0065000000 0.0065000000 0.0065000000 0.0065000000 0.0065000000 0.0065000000 0.0065000000 0.0065000000 0.0065000000 0.0065000000 0.0065000000 0.0065000000 0.0065000000 0.0065000000 0.0065000000 0.0065000000 0.0065000000 0.0065000000 0.0065000000 0.0065000000 0.0065000000 0.0065000000 0.0065000000 0.0065000000 0.0065000000 0.0065000000 0.0065000000 0.0065000000 0.0065000000 0.0065000000 0.0065000000 0.0065000000 0.0065000000 0.0065000000 0.0065000000 0.0065000000 0.0065000000 0.0065000000 0.0065000000 0.0065000000 0.0065000000 0.0065000000 0.0065000000 0.0065000000 0.0065000000 0.0065000000 0.006500000