<?xml version="1.0"?>
<VTKFile type="UnstructuredGrid" version="0.1" byte_order="LittleEndian">
  <UnstructuredGrid>
    <FieldData>
      <DataArray type="Float32" Name="TIME"  NumberOfTuples="1" format="ascii"> 0.3497591006 </DataArray>
      <DataArray type="Int32"   Name="STEP"  NumberOfTuples="1" format="ascii"> 4690 </DataArray>
    </FieldData>
    <Piece NumberOfPoints="18081" NumberOfCells="18081">
      <Points>
        <DataArray type="Float32" NumberOfComponents="3" format="ascii">
 0.0326248904 0.0143145518 -0.0005414413 0.0450584494 0.0169182204 0.0002098257 0.0510043350 0.0174747977 -0.0001266273 0.0653389998 0.0154874941 -0.0009736452 0.0752411851 0.0162212470 -0.0003407093 0.0809932062 0.0180488426 -0.0006648691 0.1051284361 0.0146096051 -0.0005613600 0.1197958363 0.0187376642 -0.0000179265 0.1439955030 0.0156892431 -0.0001448056 0.1640541642 0.0183004491 0.0012723538 0.1774589897 0.0168675227 0.0004310561 0.2054521222 0.0160385553 -0.0006774752 0.2217757930 0.0128395827 -0.0006758045 0.2562268834 0.0122624554 0.0003309004 0.2942418805 0.0157197539 -0.0000956763 0.3254077034 0.0106023817 -0.0001643066 0.3635688311 0.0082102133 -0.0000613970 0.4045640705 0.0101292116 0.0015228368 0.4602445177 0.0062017176 0.0014931104 0.4977633345 0.0015812536 0.0025986223 0.4991095130 0.0002256009 0.0428989837 0.0333384718 0.0197783264 0.0006404123 0.0380051043 0.0171687979 0.0002794475 0.0477366318 0.0207365250 0.0022408219 0.0604090796 0.0172296808 0.0013480057 0.0882439911 0.0222646669 -0.0007771431 0.1084345424 0.0182467597 -0.0003215883 0.1272853651 0.0217188742 0.0001487118 0.1500335683 0.0179896074 -0.0001533424 0.1728712569 0.0186625742 0.0006845847 0.1992047064 0.0162031425 -0.0009208192 0.2144173999 0.0174328436 0.0003689026 0.2411140182 0.0169980050 0.0004850593 0.2766658418 0.0173213548 -0.0009740477 0.3153240513 0.0151291588 0.0012710871 0.3449343769 0.0178999141 -0.0010866041 0.3642539535 0.0131706993 -0.0008392055 0.4138148881 0.0105080254 -0.0004078276 0.4675378535 0.0111112428 0.0010617120 0.4933737832 0.0070125874 -0.0006873944 0.5010999490 0.0043425587 0.0135456610 0.4988848135 0.0157913747 0.0842629790 0.0379934918 0.0211285364 0.0000926786 0.0435454112 0.0215753380 -0.0005304797 0.0480206405 0.0249654551 -0.0004222904 0.0528941966 0.0230563525 -0.0006645794 0.0679449721 0.0219998223 -0.0007318478 0.0936842228 0.0193191925 -0.0001573653 0.1178488823 0.0231363145 -0.0002505698 0.1413463724 0.0194536513 -0.0005096624 0.1602063744 0.0219090247 -0.0008736983 0.1824075276 0.0204282758 0.0008901405 0.2090698603 0.0205013200 -0.0005269118 0.2313759326 0.0220653029 -0.0005361990 0.2541428531 0.0230296773 -0.0006609453 0.2861026104 0.0198536616 -0.0006218603 0.3065973689 0.0177702263 0.0001309385 0.3626142079 0.0186586703 0.0032944313 0.4195665707 0.0171477807 -0.0009099360 0.4669306935 0.0165858949 0.0004949299 0.4987233287 0.0088971955 0.0030685627 0.5013999567 0.0064585623 0.0228626232 0.4978028572 0.0013166619 0.0641443858 0.0333766146 0.0245389208 -0.0001344362 0.0394837040 0.0256533436 0.0004089141 0.0505164091 0.0292687726 -0.0005329771 0.0617628486 0.0217107711 -0.0009348993 0.0813268222 0.0221930709 0.0003953103 0.1019564940 0.0218259481 -0.0006888405 0.1238116329 0.0236125815 0.0002443219 0.1469770661 0.0224476836 -0.0007814101 0.1679629701 0.0196272232 -0.0001987262 0.1941878504 0.0192188774 -0.0001037670 0.2147312097 0.0214844156 0.0000040407 0.2419939765 0.0222202779 -0.0008549330 0.2720916690 0.0203180648 0.0001358771 0.2992587794 0.0166318919 -0.0002447212 0.3409867963 0.0219201867 -0.0004259028 0.3687036916 0.0197648508 -0.0003016796 0.4050982798 0.0198366628 0.0010325597 0.4593027508 0.0190821086 0.0011794738 0.4860779868 0.0164111205 -0.0003470601 0.5008420124 0.0071566350 0.0323168033 0.4982421625 0.0094781659 0.0672850984 0.0284127481 0.0253937676 -0.0003197214 0.0438973190 0.0283908577 -0.0003588807 0.0588366853 0.0292496094 -0.0010028573 0.0643104121 0.0265253726 -0.0002909204 0.0772488487 0.0286691105 -0.0007049041 0.0932082978 0.0246911209 -0.0002535994 0.1134322431 0.0262629339 -0.0002200367 0.1404022156 0.0248691529 -0.0000556936 0.1632018634 0.0260807338 0.0000670714 0.1859513029 0.0235581949 -0.0007457073 0.2097783429 0.0257834237 -0.0003964737 0.2389513704 0.0271293862 -0.0005818395 0.2658880103 0.0233447090 -0.0004602550 0.2904353348 0.0289544119 -0.0000983118 0.3297327641 0.0217200914 0.0000731421 0.3593421594 0.0278477397 -0.0014379701 0.4175418045 0.0231878907 0.0011725353 0.4665989486 0.0217482819 0.0014033441 0.4987989084 0.0197615125 0.0004846159 0.4995847168 0.0206799999 0.0462791521 0.4992404690 0.0117029681 0.0686932100 0.0313716087 0.0317005452 -0.0000643011 0.0427991239 0.0327361744 -0.0001864319 0.0541685132 0.0329387657 -0.0001811065 0.0638235616 0.0318916455 -0.0004548658 0.0691085192 0.0301541972 -0.0002840251 0.0904465039 0.0348954748 -0.0002473607 0.1140481955 0.0306205412 -0.0004247185 0.1382619748 0.0305779518 -0.0011586508 0.1537704518 0.0295691162 -0.0004997452 0.1746271694 0.0289998919 -0.0006263898 0.2042073567 0.0268167186 -0.0002759210 0.2290438224 0.0303703143 -0.0007606070 0.2551388918 0.0311561365 -0.0004751195 0.2899936227 0.0349108570 0.0002075151 0.3278136149 0.0274034178 -0.0006884423 0.3687666198 0.0290175339 -0.0010373914 0.4226305167 0.0305696653 0.0004157626 0.4575890618 0.0279342384 0.0004519208 0.4929686469 0.0248055698 0.0019118403 0.5014997128 0.0269213156 0.0266204680 0.5011840576 0.0259209902 0.0712336642 0.0297497863 0.0362398994 -0.0004031593 0.0447210088 0.0372576040 -0.0007659154 0.0591834087 0.0355452401 -0.0000220912 0.0695177592 0.0356865706 -0.0006040505 0.0764915812 0.0384695008 -0.0006528584 0.0968628679 0.0334066490 -0.0001101282 0.1256025517 0.0322754210 -0.0008001186 0.1441134920 0.0328756209 -0.0006632877 0.1641272011 0.0332344361 -0.0006692339 0.1888971742 0.0344468274 -0.0009129717 0.2051956834 0.0367964204 -0.0006914182 0.2391125958 0.0366904223 -0.0003655603 0.2636459713 0.0352945520 -0.0004021038 0.2987495997 0.0322647006 -0.0006680535 0.3317987898 0.0342184280 -0.0004025492 0.3682058471 0.0344846970 0.0002025458 0.4075099979 0.0349710482 -0.0007421604 0.4658173425 0.0327932315 0.0020741395 0.4968568176 0.0317385239 0.0034382425 0.4997715796 0.0320821776 0.0413078715 0.5001343204 0.0210377457 0.0670801381 0.0319859780 0.0412504323 -0.0004457838 0.0460676617 0.0428214127 -0.0001038673 0.0538084410 0.0381748410 -0.0004904751 0.0617242240 0.0391235540 -0.0007009208 0.0690219465 0.0403963218 -0.0004442999 0.0905073739 0.0448384283 -0.0004292877 0.1163310360 0.0384500987 -0.0012971776 0.1358898454 0.0419947135 -0.0010296375 0.1551397714 0.0374658303 -0.0011344742 0.1729259311 0.0423645731 -0.0010139800 0.1992160787 0.0390458521 -0.0007135738 0.2310964768 0.0376157180 -0.0007901694 0.2521685019 0.0408719778 -0.0000433734 0.2939827224 0.0381681447 -0.0002642190 0.3279989689 0.0386274115 -0.0006278924 0.3684890660 0.0393402650 -0.0003670285 0.4180072716 0.0375898116 -0.0000331875 0.4614734902 0.0378899262 0.0017186267 0.4968897733 0.0377964201 0.0011036932 0.4996903935 0.0391630628 0.0298186780 0.4999052013 0.0364262118 0.0662208024 0.0328918944 0.0478468908 -0.0004448319 0.0430969735 0.0479397989 0.0000201982 0.0599396734 0.0447415365 -0.0003578597 0.0656342480 0.0435889930 0.0000478512 0.0737542614 0.0432860701 -0.0007925833 0.0973476617 0.0425592922 -0.0003734372 0.1217305046 0.0437265734 -0.0007930972 0.1423787709 0.0422880016 -0.0004000685 0.1605445145 0.0416727501 -0.0008275399 0.1815088307 0.0445466773 -0.0007980707 0.2053347135 0.0434990439 -0.0007648480 0.2444351055 0.0463486810 -0.0001907109 0.2622982506 0.0434560659 0.0000047552 0.2932738805 0.0434343905 -0.0001379695 0.3283904458 0.0439507499 -0.0001168145 0.3691936274 0.0446010547 -0.0000983993 0.4158113684 0.0431708115 0.0002325411 0.4647183521 0.0424935915 0.0008161903 0.4973335461 0.0430672290 0.0010467339 0.5013826099 0.0420426466 0.0416769199 0.5000384674 0.0336550793 0.0684410014 0.0320662869 0.0538988687 -0.0005891898 0.0472979044 0.0527601058 -0.0004374149 0.0549058594 0.0485870580 -0.0000907181 0.0637213286 0.0483206263 -0.0002953470 0.0697034786 0.0473593320 -0.0004035502 0.0969142585 0.0481898044 -0.0004495946 0.1170699597 0.0494865438 -0.0006372391 0.1347135715 0.0474420985 -0.0004466555 0.1585826941 0.0474778352 -0.0007856235 0.1722558906 0.0489245437 -0.0009928379 0.2014240357 0.0479498166 -0.0011698582 0.2339309743 0.0488964622 -0.0001305625 0.2536342828 0.0482651204 -0.0004481231 0.2917048453 0.0509929843 0.0015995687 0.3284207350 0.0497348857 -0.0009347901 0.3682833920 0.0494592012 -0.0004972601 0.4146081440 0.0488051052 0.0008223943 0.4639628970 0.0480803347 -0.0010591541 0.4966913547 0.0481471862 0.0010376571 0.5008427925 0.0486843064 0.0374484602 0.4995878704 0.0450394093 0.0692547244 0.0340881324 0.0575552536 -0.0004688460 0.0452549695 0.0574047143 -0.0000922276 0.0593626822 0.0522617249 -0.0005311527 0.0637000657 0.0543830876 -0.0001606272 0.0759857254 0.0524185781 -0.0004808946 0.0931155792 0.0529451236 -0.0010098730 0.1252956488 0.0522685488 -0.0005868812 0.1408865849 0.0514084963 -0.0009183332 0.1628513091 0.0521928769 -0.0004824321 0.1841706743 0.0532936502 -0.0005147521 0.2041581796 0.0525647046 -0.0006196880 0.2458440871 0.0554866562 -0.0005274781 0.2572230823 0.0523711637 -0.0004663583 0.2950105096 0.0536232138 -0.0008825282 0.3273629265 0.0550881465 -0.0006652550 0.3683239506 0.0544224618 -0.0004910421 0.4160243413 0.0535863200 -0.0006859592 0.4645116702 0.0534103657 0.0020739638 0.4973153033 0.0523360129 -0.0007372412 0.5012373082 0.0518012325 0.0254875071 0.4994412287 0.0446028022 0.0702316004 0.0335783859 0.0631485830 -0.0006722477 0.0480572160 0.0621771899 -0.0008437500 0.0575327500 0.0579169030 -0.0005212750 0.0640077305 0.0598749980 -0.0006754638 0.0733894549 0.0569347530 -0.0001881995 0.0935568905 0.0581012292 -0.0001964674 0.1184225392 0.0577779884 -0.0011354412 0.1399745261 0.0575473701 -0.0006704348 0.1544339736 0.
[...]
      <PointData Scalars="smoothLength">
        <DataArray type="Float32" Name="smoothLength" format="ascii">
 0.0065000000 0.0065000000 0.0065000000 0.0065000000 0.0065000000 0.0065000000 0.0065000000 0.0065000000 0.0065000000 0.0065000000 0.0065000000 0.0065000000 0.0065000000 0.0065000000 0.0065000000 0.0065000000 0.0065000000 0.0065000000 0.0065000000 0.0065000000 0.0065000000 0.0065000000 0.0065000000 0.0065000000 0.0065000000 0.0065000000 0.0065000000 0.0065000000 0.0065000000 0.0065000000 0.0065000000 0.0065000000 0.0065000000 0.0065000000 0.0065000000 0.0065000000 0.0065000000 0.0065000000 0.0065000000 0.0065000000 0.0065000000 0.0065000000 0.0065000000 0.0065000000 0.0065000000 0.0065000000 0.0065000000 0.0065000000 0.0065000000 0.0065000000 0.0065000000 0.0065000000 0.0065000000 0.0065000000 0.0065000000 0.0065000000 0.0065000000 0.0065000000 0.0065000000 0.0065000000 0.0065000000 0.0065000000 0.0065000000 0.0065000000 0.0065000000 0.0065000000 0.0065000000 0.0065000000 0.0065000000 0.0065000000 0.0065000000 0.0065000000 0.0065000000 0.0065000000 0.0065000000 0.0065000000 0.0065000000 0.0065000000 0.0065000000 0.0065000000 0.0065000000 0.0065000000 0.0065000000 0.0065000000 0.0065000000 0.0065000000 0.0065000000 0.0065000000 0.0065000000 0.0065000000 0.0065000000 0.0065000000 0.0065000000 0.0065000000 0.0065000000 0.0065000000 0.0065000000 0.0065000000 0.0065000000 0.0065000000 0.0065000000 0.0065000000 0.0065000000 0.0065000000 0.0065000000 0.0065000000 0.0065000000 0.0065000000 0.0065000000 0.0065000000 0.0065000000 0.0065000000 0.0065000000 0.0065000000 0.0065000000 0.0065000000 0.0065000000 0.0065000000 0.0065000000 0.0065000000 0.0065000000 0.0065000000 0.0065000000 0.0065000000 0.0065000000 0.0065000000 0.0065000000 0.0065000000 0.0065000000 0.0065000000 0.0065000000 0.0065000000 0.0065000000 0.0065000000 0.0065000000 0.0065000000 0.0065000000 0.0065000000 0.0065000000 0.0065000000 0.0065000000 0.0065000000 0.0065000000 0.0065000000 0.0065000000 0.0065000000 0.0065000000 0.0065000000 0.0065000000 0.0065000000 0.0065000000 0.0065000000 0.0065000000 0.0065000000 0.0065000000 0.0065000000 0.0065000000 0.0065000000 0.0065000000 0.0065000000 0.0065000000 0.0065000000 0.0065000000 0.0065000000 0.0065000000 0.0065000000 0.0065000000 0.0065000000 0.0065000000 0.0065000000 0.0065000000 0.0065000000 0.0065000000 0.0065000000 0.0065000000 0.0065000000 0.0065000000 0.0065000000 0.0065000000 0.0065000000 0.0065000000 0.0065000000 0.0065000000 0.0065000000 0.0065000000 0.0065000000 0.0065000000 0.0065000000 0.0065000000 0.0065000000 0.0065000000 0.0065000000 0.0065000000 0.0065000000 0.0065000000 0.0065000000 0.0065000000 0.0065000000 0.0065000000 0.0065000000 0.0065000000 0.0065000000 0.0065000000 0.0065000000 0.0065000000 0.0065000000 0.0065000000 0.0065000000 0.0065000000 0.0065000000 0.0065000000 0.0065000000 0.0065000000 0.0065000000 0.0065000000 0.0065000000 0.0065000000 0.0065000000 0.0065000000 0.0065000000 0.0065000000 0.0065000000 0.0065000000 0.0065000000 0.0065000000 0.0065000000 0.0065000000 0.0065000000 0.0065000000 0.0065000000 0.0065000000 0.0065000000 0.0065000000 0.0065000000 0.0065000000 0.0065000000 0.0065000000 0.0065000000 0.0065000000 0.0065000000 0.0065000000 0.0065000000 0.0065000000 0.0065000000 0.0065000000 0.0065000000 0.0065000000 0.0065000000 0.0065000000 0.0065000000 0.0065000000 0.0065000000 0.0065000000 0.0065000000 0.0065000000 0.0065000000 0.0065000000 0.0065000000 0.0065000000 0.0065000000 0.0065000000 0.0065000000 0.0065000000 0.0065000000 0.0065000000 0.0065000000 0.0065000000 0.0065000000 0.0065000000 0.0065000000 0.0065000000 0.0065000000 0.0065000000 0.0065000000 0.0065000000 0.0065000000 0.0065000000 0.0065000000 0.0065000000 0.0065000000 0.0065000000 0.0065000000 0.0065000000 0.0065000000 0.0065000000 0.0065000000 0.0065000000 0.0065000000 0.0065000000 0.0065000000 0.0065000000 0.0065000000 0.0065000000 0.0065000000 0.0065000000 0.0065000000 0.0065000000 0.0065000000 0.0065000000 0.0065000000 0.0065000000 0.0065000000 0.0065000000 0.0065000000 0.0065000000 0.0065000000 0.0065000000 0.0065000000 0.0065000000 0.0065000000 0.0065000000 0.0065000000 0.0065000000 0.0065000000 0.0065000000 0.0065000000 0.0065000000 0.0065000000 0.0065000000 0.0065000000 0.0065000000 0.0065000000 0.0065000000 0.0065000000 0.0065000000 0.0065000000 0.0065000000 0.0065000000 0.0065000000 0.0065000000 0.0065000000 0.0065000000 0.0065000000 0.0065000000 0.0065000000 0.0065000000 0.0065000000 0.0065000000 0.0065000000 0.0065000000 0.0065000000 0.0065000000 0.0065000000 0.0065000000 0.0065000000 0.0065000000 0.0065000000 0.0065000000 0.0065000000 0.0065000000 0.0065000000 0.0065000000 0.0065000000 0.0065000000 0.0065000000 0.0065000000 0.0065000000 0.0065000000 0.0065000000 0.0065000000 0.0065000000 0.0065000000 0.0065000000 0.0065000000 0.0065000000 0.0065000000 0.0065000000 0.0065000000 0.0065000000 0.0065000000 0.0065000000 0.0065000000 0.0065000000 0.0065000000 0.0065000000 0.0065000000 0.0065000000 0.0065000000 0.0065000000 0.0065000000 0.0065000000 0.0065000000 0.0065000000 0.0065000000 0.0065000000 0.0065000000 0.0065000000 0.0065000000 0.0065000000 0.0065000000 0.0065000000 0.0065000000 0.0065000000 0.0065000000 0.0065000000 0.0065000000 0.0065000000 0.0065000000 0.0065000000 0.0065000000 0.0065000000 0.0065000000 0.0065000000 0.0065000000 0.0065000000 0.0065000000 0.0065000000 0.0065000000 0.0065000000 0.0065000000 0.0065000000 0.0065000000 0.0065000000 0.0065000000 0.0065000000 0.0065000000 0.0065000000 0.0065000000 0.0065000000 0.0065000000 0.0065000000 0.0065000000 0.0065000000 0.0065000000 0.0065000000 0.0065000000 0.0065000000 0.0065000000 0.0065000000 0.0065000000 0.0065000000 0.0065000000 0.0065000000 0.0065000000 0.0065000000 0.0065000000 0.0065000000 0.0065000000 0.0065000000 0.0065000000 0.0065000000 0.0065000000 0.0065000000 0.0065000000 0.0065000000 0.0065000000 0.0065000000 0.0065000000 0.0065000000 0.0065000000 0.0065000000 0.0065000000 0.0065000000 0.0065000000 0.0065000000 0.0065000000 0.0065000000 0.0065000000 0.0065000000 0.0065000000 0.0065000000 0.0065000000 0.0065000000 0.0065000000 0.0065000000 0.0065000000 0.0065000000 0.0065000000 0.0065000000 0.0065000000 0.0065000000 0.0065000000 0.0065000000 0.0065000000 0.0065000000 0.0065000000 0.0065000000 0.0065000000 0.0065000000 0.0065000000 0.0065000000 0.0065000000 0.0065000000 0.0065000000 0.0065000000 0.0065000000 0.0065000000 0.0065000000 0.0065000000 0.0065000000 0.0065000000 0.0065000000 0.0065000000 0.0065000000 0.0065000000 0.0065000000 0.0065000000 0.0065000000 0.0065000000 0.0065000000 0.0065000000 0.0065000000 0.0065000000 0.0065000000 0.0065000000 0.0065000000 0.0065000000 0.0065000000 0.0065000000 0.0065000000 0.0065000000 0.0065000000 0.0065000000 0.0065000000 0.0065000000 0.0065000000 0.0065000000 0.0065000000 0.0065000000 0.0065000000 0.0065000000 0.0065000000 0.0065000000 0.0065000000 0.0065000000 0.0065000000 0.0065000000 0.0065000000 0.0065000000 0.0065000000 0.0065000000 0.0065000000 0.0065000000 0.0065000000 0.0065000000 0.0065000000 0.0065000000 0.0065000000 0.0065000000 0.0065000000 0.0065000000 0.0065000000 0.0065000000 0.0065000000 0.0065000000 0.0065000000 0.0065000000 0.0065000000 0.0065000000 0.0065000000 0.0065000000 0.0065000000 0.0065000000 0.0065000000 0.0065000000 0.0065000000 0.0065000000 0.0065000000 0.0065000000 0.0065000000 0.0065000000 0.0065000000 0.0065000000 0.0065000000 0.0065000000 0.0065000000 0.0065000000 0.0065000000 0.0065000000 0.0065000000 0.0065000000 0.0065000000 0.0065000000 0.0065000000 0.0065000000 0.0065000000 0.0065000000 0.0065000000 0.0065000000 0.0065000000 0.0065000000 0.0065000000 0.0065000000 0.0065000000 0.0065000000 0.0065000000 0.0065000000 0.0065000000 0.0065000000 0.0065000000 0.0065000000 0.0065000000 0.0065000000 0.0065000000 0.0065000000 0.0065000000 0.0065000000 0.0065000000 0.0065000000 0.0065000000 0.0065000000 0.0065000000 0.0065000000 0.0065000000 0.0065000000 0.0065000000 0.0065000000 0.0065000000 0.0065000000 0.0065000000 0.0065000000 0.0065000000 0.0065000000 0.0065000000 0.0065000000 0.0065000000 0.0065000000 0.0065000000 0.0065000000 0.0065000000 0.0065000000 0.0065000000 0.0065000000 0.0065000000 0.0065000000 0.0065000000 0.0065000000 0.0065000000 0.0065000000 0.0065000000 0.0065000000 0.0065000000 0.0065000000 0.0065000000 0.0065000000 0.0065000000 0.0065000000 0.0065000000 0.0065000000 0.0065000000 0.0065000000 0.0065000000 0.0065000000 0.0065000000 0.0065000000 0.0065000000 0.0065000000 0.0065000000 0.0065000000 0.0065000000 0.0065000000 0.0065000000 0.0065000000 0.0065000000 0.0065000000 0.0065000000 0.0065000000 0.0065000000 0.0065000000 0.0065000000 0.0065000000 0.0065000000 0.0065000000 0.0065000000 0.0065000000 0.0065000000 0.0065000000 0.0065000000 0.0065000000 0.0065000000 0.0065000000 0.0065000000 0.0065000000 0.0065000000 0.0065000000 0.0065000000 0.0065000000 0.0065000000 0.0065000000 0.0065000000 0.0065000000 0.0065000000 0.0065000000 0.0065000000 0.0065000000 0.0065000000 0.0065000000 0.0065000000 0.0065000000 0.0065000000 0.0065000000 0.0065000000 0.0065000000 0.0065000000 0.0065000000 0.0065000000 0.0065000000 0.0065000000 0.0065000000 0.0065000000 0.0065000000 0.0065000000 0.0065000000 0.0065000000 0.0065000000 0.0065000000 0.0065000000 0.0065000000 0.0065000000 0.0065000000 0.0065000000 0.0065000000 0.0065000000 0.0065000000 0.0065000000 0.0065000000 0.0065000000 0.0065000000 0.0065000000 0.0065000000 0.0065000000 0.0065000000 0.0065000000 0.0065000000 0.0065000000 0.0065000000 0.0065000000 0.0065000000 0.0065000000 0.0065000000 0.0065000000 0.0065000000 0.0065000000 0.0065000000 0.0065000000 0.0065000000 0.0065000000 0.0065000000 0.0065000000 0.0065000000 0.0065000000 0.0065000000 0.0065000000 0.0065000000 0.0065000000 0.0065000000 0.0065000000 0.0065000000 0.0065000000 0.0065000000 0.0065000000 0.0065000000 0.0065000000 0.0065000000 0.0065000000 0.0065000000 0.0065000000 0.0065000000 0.0065000000 0.0065000000 0.0065000000 0.0065000000 0.0065000000 0.0065000000 0.0065000000 0.0065000000 0.0065000000 0.0065000000 0.0065000000 0.0065000000 0.0065000000 0.0065000000 0.0065000000 0.0065000000 0.0065000000 0.0065000000 0.0065000000 0.0065000000 0.0065000000 0.0065000000 0.0065000000 0.0065000000 0.0065000000 0.0065000000 0.0065000000 0.0065000000 0.0065000000 0.0065000000 0.0065000000 0.0065000000 0.0065000000 0.0065000000 0.0065000000 0.0065000000 0.0065000000 0.0065000000 0.0065000000 0.0065000000 0.0065000000 0.0065000000 0.0065000000 0.0065000000 0.0065000000 0.0065000000 0.0065000000 0.0065000000 0.0065000000 0.0065000000 0.0065000000 0.0065000000 0.0065000000 0.0065000000 0.0065000000 0.0065000000 0.0065000000 0.0065000000 0.0065000000 0.0065000000 0.0065000000 0.0065000000 0.0065000000 0.0065000000 0.0065000000 0.0065000000 0.0065000000 0.0065000000 0.0065000000 0.0065000000 0.0065000000 0.0065000000 0.0065000000 0.0065000000 0.0065000000 0.0065000000 0.0065000000 0.0065000000 0.0065000000 0.0065000000 0.0065000000 0.0065000000 0.0065000000 0.0065000000 0.0065000000 0.0065000000 0.0065000000 0.0065000000 0.0065000000 0.0065000000 0.0065000000 0.0065000000 0.0065000000 0.0065000000 0.0065000000 0.0065000000 0.0065000000 0.0065000000 0.0065000000 0.0065000000 0.0065000000 0.0065000000 0.0065000000 0.0065000000 0.0065000000 0.0065000000 0.0065000000 0.0065000000 0.0065000000 0.0065000000 0.0065000000 0.0065000000 0.0065000000 0.0065000000 0.0065000000 0.0065000000 0.0065000000 0.0065000000 0.0065000000 0.0065000000 0.0065000000 0.0065000000 0.0065000000 0.0065000000 0.0065000000 0.0065000000 0.0065000000 0.0065000000 0.0065000000 0.0065000000 0.0065000000 0.0065000000 0.0065000000 0.0065000000 0.0065000000 0.0065000000 0.0065000000 0.0065000000 0.0065000000 0.0065000000 0.0065000000 0.0065000000 0.0065000000 0.0065000000 0.0065000000 0.0065000000 0.0065000000 0.0065000000 0.0065000000 0.0065000000 0.0065000000 0.0065000000 0.0065000000 0.0065000000 0.0065000000 0.0065000000 0.0065000000 0.0065000000 0.0065000000 0.0065000000 0.0065000000 0.0065000000 0.0065000000 0.0065000000 0.0065000000 0.0065000000 0.0065000000 0.0065000000 0.0065000000 0.0065000000 0.0065000000 0.0065000000 0.0065000000 0.0065000000 0.0065000000 0.0065000000 0.0065000000 0.0065000000 0.0065000000 0.0065000000 0.0065000000 0.0065000000 0.0065000000 0.0065000000 0.0065000000 0.0065000000 0.0065000000 0.0065000000 0.0065000000 0.0065000000 0.0065000000 0.0065000000 0.0065000000 0.0065000000 0.0065000000 0.0065000000 0.0065000000 0.0065000000 0.0065000000 0.0065000000 0.0065000000 0.0065000000 0.0065000000 0.0065000000 0.0065000000 0.0065000000 0.0065000000 0.0065000000 0.0065000000 0.0065000000 0.0065000000 0.0065000000 0.0065000000 0.0065000000 0.0065000000 0.0065000000 0.0065000000 0.0065000000 0.0065000000 0.0065000000 0.0065000000 0.0065000000 0.0065000000 0.0065000000 0.0065000000 0.0065000000 0.0065000000 0.0065000000 0.0065000000 0.0065000000 0.0065000000 0.0065000000 0.0065000000 0.0065000000 0.0065000000 0.0065000000 0.0065000000 0.0065000000 0.0065000000 0.0065000000 0.0065000000 0.0065000000 0.0065000000 0.0065000000 0.0065000000 0.0065000000 0.0065000000 0.0065000000 0.0065000000 0.0065000000 0.0065000000 0.0065000000 0.0065000000 0.0065000000 0.0065000000 0.0065000000 0.0065000000 0.0065000000 0.0065000000 0.0065000000 0.0065000000 0.0065000000 0.0065000000 0.0065000000 0.0065000000 0.0065000000 0.0065000000 0.0065000000 0.0065000000 0.0065000000 0.0065000000 0.0065000000 0.0065000000 0.0065000000 0.0065000000 0.0065000000 0.0065000000 0.0065000000 0.0065000000 0.0065000000 0.0065000000 0.0065000000 0.0065000000 0.0065000000 0.0065000000 0.0065000000 0.0065000000 0.0065000000 0.0065000000 0.0065000000 0.0065000000 0.0065000000 0.0065000000 0.0065000000 0.0065000000 0.0065000000 0.0065000000 0.0065000000 0.0065000000 0.0065000000 0.0065000000 0.0065000000 0.0065000000 0.0065000000 0.0065000000 0.0065000000 0.0065000000 0.0065000000 0.0065000000 0.0065000000 0.0065000000 0.0065000000 0.0065000000 0.0065000000 0.0065000000 0.0065000000 0.0065000000 0.0065000000 0.0065000000 0.0065000000 0.0065000000 0.0065000000 0.0065000000 0.0065000000 0.0065000000 0.0065000000 0.0065000000 0.0065000000 0.0065000000 0.0065000000 0.0065000000 0.0065000000 0.0065000000 0.0065000000 0.0065000000 0.0065000000 0.0065000000 0.0065000000 0.0065000000 0.0065000000 0.0065000000 0.0065000000 0.0065000000 0.0065000000 0.0065000000 0.0065000000 0.0065000000 0.0065000000 0.0065000000 0.0065000000 0.0065000000 0.0065000000 0.0065000000 0.0065000000 0.0065000000 0.0065000000 0.0065000000 0.0065000000 0.0065000000 0.0065000000 0.0065000000 0.0065000000 0.0065000000 0.0065000000 0.0065000000 0.0065000000 0.0065000000 0.0065000000 0.0065000000 0.0065000000 0.0065000000 0.0065000000 0.0065000000 0.0065000000 0.0065000000 0.0065000000 0.0065000000 0.0065000000 0.0065000000 0.0065000000 0.0065000000 0.0065000000 0.0065000000 0.0065000000 0.0065000000 0.0065000000 0.0065000000 0.0065000000 0.0065000000 0.0065000000 0.0065000000 0.0065000000 0.0065000000 0.0065000000 0.0065000000 0.0065000000 0.0065000000 0.0065000000 0.0065000000 0.0065000000 0.0065000000 0.0065000000 0.0065000000 0.0065000000 0.0065000000 0.0065000000 0.0065000000 0.0065000000 0.0065000000 0.0065000000 0.0065000000 0.0065000000 0.0065000000 0.0065000000 0.0065000000 0.0065000000 0.0065000000 0.0065000000 0.0065000000 0.0065000000 0.0065000000 0.0065000000 0.0065000000 0.0065000000 0.0065000000 0.0065000000 0.0065000000 0.0065000000 0.0065000000 0.0065000000 0.0065000000 0.0065000000 0.0065000000 0.0065000000 0.0065000000 0.0065000000 0.0065000000 0.0065000000 0.0065000000 0.0065000000 0.0065000000 0.0065000000 0.0065000000 0.0065000000 0.0065000000 0.0065000000 0.0065000000 0.0065000000 0.0065000000 0.0065000000 0.0065000000 0.0065000000 0.0065000000 0.0065000000 0.0065000000 0.0065000000 0.0065000000 0.0065000000 0.0065000000 0.0065000000 0.0065000000 0.0065000000 0.0065000000 0.0065000000 0.0065000000 0.0065000000 0.0065000000 0.0065000000 0.0065000000 0.0065000000 0.0065000000 0.0065000000 0.0065000000 0.0065000000 0.0065000000 0.0065000000 0.0065000000 0.0065000000 0.0065000000 0.0065000000 0.0065000000 0.0065000000 0.0065000000 0.0065000000 0.0065000000 0.0065000000 0.0065000000 0.0065000000 0.0065000000 0.0065000000 0.0065000000 0.0065000000 0.0065000000 0.0065000000 0.0065000000 0.0065000000 0.0065000000 0.0065000000 0.0065000000 0.0065000000 0.0065000000 0.0065000000 0.0065000000 0.0065000000 0.0065000000 0.0065000000 0.0065000000 0.0065000000 0.0065000000 0.0065000000 0.0065000000 0.0065000000 0.0065000000 0.0065000000 0.0065000000 0.0065000000 0.0065000000 0.0065000000 0.0065000000 0.0065000000 0.0065000000 0.0065000000 0.0065000000 0.0065000000 0.0065000000 0.0065000000 0.0065000000 0.0065000000 0.0065000000 0.0065000000 0.0065000000 0.0065000000 0.0065000000 0.0065000000 0.0065000000 0.0065000000 0.0065000000 0.0065000000 0.0065000000 0.0065000000 0.0065000000 0.0065000000 0.0065000000 0.0065000000 0.0065000000 0.0065000000 0.0065000000 0.0065000000 0.0065000000 0.0065000000 0.0065000000 0.0065000000 0.0065000000 0.0065000000 0.0065000000 0.0065000000 0.0065000000 0.0065000000 0.0065000000 0.0065000000 0.0065000000 0.0065000000 0.0065000000 0.0065000000 0.0065000000 0.0065000000 0.0065000000 0.0065000000 0.0065000000 0.0065000000 0.0065000000 0.0065000000 0.0065000000 0.0065000000 0.0065000000 0.0065000000 0.0065000000 0.0065000000 0.0065000000 0.0065000000 0.0065000000 0.0065000000 0.0065000000 0.0065000000 0.0065000000 0.0065000000 0.0065000000 0.0065000000 0.0065000000 0.0065000000 0.0065000000 0.0065000000 0.0065000000 0.0065000000 0.0065000000 0.0065000000 0.0065000000 0.0065000000 0.0065000000 0.0065000000 0.0065000000 0.0065000000 0.0065000000 0.0065000000 0.0065000000 0.0065000000 0.0065000000 0.0065000000 0.0065000000 0.0065000000 0.0065000000 0.0065000000 0.0065000000 0.0065000000 0.0065000000 0.0065000000 0.0065000000 0.0065000000 0.0065000000 0.0065000000 0.0065000000 0.0065000000 0.0065000000 0.0065000000 0.0065000000 0.0065000000 0.0065000000 0.0065000000 0.0065000000 0.0065000000 0.0065000000 0.0065000000 0.0065000000 0.0065000000 0.0065000000 0.0065000000 0.0065000000 0.0065000000 0.0065000000 0.0065000000 0.0065000000 0.0065000000 0.0065000000 0.0065000000 0.0065000000 0.0065000000 0.0065000000 0.0065000000 0.0065000000 0.0065000000 0.0065000000 0.0065000000 0.0065000000 0.0065000000 0.0065000000 0.0065000000 0.0065000000 0.0065000000 0.0065000000 0.0065000000 0.0065000000 0.0065000000 0.0065000000 0.0065000000 0.0065000000 0.0065000000 0.0065000000 0.0065000000 0.0065000000 0.0065000000 0.0065000000 0.0065000000 0.0065000000 0.0065000000 0.0065000000 0.0065000000 0.0065000000 0.0065000000 0.0065000000 0.0065000000 0.0065000000 0.0065000000 0.0065000000 0.0065000000 0.0065000000 0.0065000000 0.0065000000 0.0065000000 0.0065000000 0.0065000000 0.0065000000 0.0065000000 0.0065000000 0.0065000000 0.0065000000 0.0065000000 0.0065000000 0.0065000000 0.0065000000 0.0065000000 0.0065000000 0.0065000000 0.0065000000 0.0065000000 0.0065000000 0.0065000000 0.0065000000 0.0065000000 0.0065000000 0.0065000000 0.0065000000 0.0065000000 0.0065000000 0.0065000000 0.0065000000 0.0065000000 0.0065000000 0.0065000000 0.0065000000 0.0065000000 0.0065000000 0.0065000000 0.0065000000 0.0065000000 0.0065000000 0.0065000000 0.0065000000 0.0065000000 0.0065000000 0.0065000000 0.0065000000 0.0065000000 0.0065000000 0.0065000000 0.0065000000 0.0065000000 0.0065000000 0.0065000000 0.0065000000 0.0065000000 0.0065000000 0.0065000000 0.0065000000 0.0065000000 0.0065000000 0.0065000000 0.0065000000 0.0065000000 0.0065000000 0.0065000000 0.0065000000 0.0065000000 0.0065000000 0.0065000000 0.0065000000 0.0065000000 0.0065000000 0.0065000000 0.0065000000 0.0065000000 0.0065000000 0.0065000000 0.0065000000 0.0065000000 0.0065000000 0.0065000000 0.0065000000 0.0065000000 0.0065000000 0.0065000000 0.0065000000 0.006500000