<?xml version="1.0"?>
<VTKFile type="UnstructuredGrid" version="0.1" byte_order="LittleEndian">
  <UnstructuredGrid>
    <FieldData>
      <DataArray type="Float32" Name="TIME"  NumberOfTuples="1" format="ascii"> 1.6488643315 </DataArray>
      <DataArray type="Int32"   Name="STEP"  NumberOfTuples="1" format="ascii"> 22110 </DataArray>
    </FieldData>
    <Piece NumberOfPoints="18081" NumberOfCells="18081">
      <Points>
        <DataArray type="Float32" NumberOfComponents="3" format="ascii">
 0.0814920441 0.0209031454 0.0058984048 0.0867651140 0.0032645856 0.0037493128 0.0629290850 0.0008525248 0.0140620385 0.1608815464 0.0006747697 -0.0000863532 0.1401894056 0.0088021797 0.0164585602 0.1069284697 0.0023466109 0.0002800936 0.3091453471 0.0047641871 -0.0015809702 0.3504221506 0.0177112713 0.0016248391 0.2415812942 0.0147534489 0.0252498822 0.1300638511 0.0036035359 0.0227689452 0.1861674007 0.0200874934 0.0003279838 0.3125383096 0.0467450821 0.0114515922 0.4001132403 0.0215803526 -0.0001797558 0.3257149202 0.0496712073 0.0140385873 0.2371462969 0.0297247578 0.0124632448 0.4249832572 0.0388830213 -0.0000636496 0.2431067084 0.0064465215 0.0049467085 0.2270303486 0.0167952319 0.0095654081 0.1102298672 0.0128601853 0.0263319262 0.2629857645 0.0014033393 0.0223135849 0.2320766925 0.0461845472 0.0254916732 0.0622760964 0.0081562769 0.0005704245 0.0562987912 0.0069496695 -0.0005644076 0.0025145719 0.0253625813 0.0094189994 0.0311912870 0.0116581530 0.0130036493 0.1766719968 0.0008860463 -0.0001041803 0.2313448575 0.0218233431 0.0008012130 0.2288181058 0.0160431220 -0.0011074203 0.4063473044 0.0000131549 -0.0006999247 0.2367839612 0.0137224864 0.0254432078 0.4670078843 0.0459229261 0.0006911367 0.3815560273 0.0304896254 -0.0006378838 0.3921927212 0.0380433306 -0.0006617311 0.3797310631 0.0628368738 0.0116702641 0.3598337274 0.0223667143 0.0110239041 0.2406538786 0.0115918210 0.0051255316 0.4126135846 0.0047714382 0.0015662871 0.2437742329 0.0241908880 0.0216921829 0.1077853625 0.0079942816 0.0230040804 0.1322944753 0.0145607617 0.0245427144 0.0461709797 0.0039003881 0.0103334443 0.2561674729 0.0285103726 0.0039445567 0.1210828336 0.0181861877 -0.0002856957 0.0977104002 0.0001436332 0.0018933832 0.0939152732 0.0016931427 -0.0002906226 0.0629271242 0.0150163629 0.0134003264 0.1410535776 0.0022277652 0.0164546662 0.2453369720 0.0146736402 0.0005099781 0.3444973374 0.0267957981 0.0003256444 0.1705025270 0.0347160765 0.0247771517 0.1465010900 0.0319720015 0.0249824428 0.2420662504 0.0171687550 0.0002536628 0.4786694281 0.0274674430 0.0012688551 0.3658109834 0.0452361438 0.0103067071 0.3787874645 0.0492351337 0.0030664279 0.2440932228 0.0334612425 0.0187602272 0.3670153732 0.0376278512 0.0088942140 0.1802859179 0.0005387120 0.0154723118 0.2284769746 0.0099071606 0.0262103352 0.2328771987 0.0102635526 0.0271343247 0.3402235938 -0.0002222983 0.0153016327 0.2566989244 0.0204613125 0.0180901381 0.2444621602 0.0459231792 0.0260252015 0.0689618225 0.0147229141 0.0032249094 0.1163823469 0.0146786917 0.0003268254 0.0749974315 0.0098475449 0.0213269902 0.1287750768 0.0091676281 0.0214428166 0.1850987556 0.0061380539 0.0074311810 0.2861095864 0.0050074006 -0.0004760958 0.3375427228 0.0136132338 0.0010366468 0.2028085155 0.0231857487 0.0091931835 0.4731134980 0.0012643499 -0.0002295246 0.4841701493 0.0365054694 0.0097327543 0.4070784384 0.0557235664 0.0029670925 0.3269169447 0.0502075225 0.0072599049 0.3973443504 0.0415568143 0.0088392937 0.3546168403 0.0324903605 0.0124011469 0.2027514651 0.0222343246 0.0249598069 0.4944880720 0.0458761350 0.0090320260 0.0656711788 0.0204141496 0.0150760886 0.1500211664 0.0278123533 0.0194494868 0.0515382417 0.0180112004 0.0255926607 0.3300102359 0.0510225006 0.0146703630 0.2691568675 0.0144616477 0.0062075312 0.0867696247 0.0225452449 0.0033685192 0.1139221360 -0.0002289008 0.0045601289 0.1489527358 0.0006895498 0.0110547641 0.1119236103 0.0017244461 -0.0003282128 0.0820637001 0.0091977472 0.0000701622 0.1850838098 0.0355489850 0.0160950353 0.2385757084 0.0337822868 0.0016900446 0.2338790175 0.0255665158 0.0251554563 0.1657494412 0.0386292017 0.0262780617 0.4342229220 0.0129895354 -0.0008800127 0.4999620815 0.0514792610 0.0066219109 0.3371991650 0.0442474037 0.0078231064 0.3659887405 0.0430338144 0.0061141226 0.3472932134 0.0609279402 0.0129975236 0.2333171590 0.0363836061 0.0151218350 0.1041135916 0.0266162143 0.0244426873 0.2176023691 0.0195796819 0.0100192601 0.1874832181 0.0352458488 0.0294733835 0.3212110958 0.0053759518 0.0136963326 0.2736943105 0.0276514922 0.0115804316 0.3380197652 0.0525240520 0.0139838950 0.0750144026 0.0207112516 -0.0002222576 0.0931391810 0.0260186749 0.0084301026 0.1241148739 -0.0001717928 0.0185878374 0.0706957300 0.0064853133 0.0128555262 0.1312579432 -0.0000598711 0.0064895533 0.1951652483 0.0277583133 -0.0005582655 0.3373510982 0.0091306134 -0.0004355143 0.4403053459 -0.0001841068 -0.0014288946 0.1911581220 0.0384899494 0.0174387002 0.2231080438 0.0150688061 0.0059720192 0.3198315557 0.0390763146 0.0085423019 0.3318078429 0.0547628056 0.0062158308 0.2431192243 0.0667452135 0.0142759690 0.4844893059 0.0526568995 0.0061369052 0.3968987086 0.0266649179 -0.0004863263 0.1310361174 0.0255721885 0.0248509181 0.1822583695 0.0318911528 0.0007961435 0.0153913868 0.0032499484 0.0135092698 0.0595811893 0.0385037335 0.0205054222 0.2485447376 0.0356476484 0.0254299732 0.2679724622 0.0226507064 0.0109784679 0.1463156011 0.0289150387 0.0032722615 0.1149227795 0.0146201630 0.0070260656 0.1025257458 0.0003104078 0.0000730270 0.0353693897 0.0138478075 0.0093906698 0.1169539589 0.0265521662 0.0181913988 0.1977863282 0.0055698666 0.0000823810 0.4226990275 0.0170664040 -0.0011150798 0.1878791149 0.0409187599 0.0140958401 0.2014698358 0.0200208154 0.0017599873 0.4767444697 0.0421880752 0.0013967152 0.3765169616 0.0129943583 0.0036490064 0.3958126747 0.0586980308 0.0006358758 0.3176290886 0.0529608475 0.0125641381 0.3702469395 0.0589112595 0.0095170027 0.2024338391 0.0355897139 0.0214682124 0.2069079057 0.0386690793 0.0242151500 0.1054329210 0.0208026030 0.0200827758 0.1638937112 0.0371057206 0.0285206050 0.0062786595 0.0065637203 0.0250395653 0.3492349504 0.0654757656 0.0136564597 0.1917755758 0.0376241479 0.0301319192 0.1268965507 0.0175085563 -0.0002666097 0.0304787583 0.0135186351 0.0198247197 0.1062227234 0.0378794029 0.0161481720 0.0909068479 -0.0007065821 0.0098172474 0.1107130104 0.0161664116 -0.0004349791 0.1656183583 0.0471799673 0.0038823720 0.3732062430 0.0243465566 0.0001710010 0.2034742704 0.0358855432 -0.0004045196 0.2011615280 0.0288804466 0.0051065697 0.1868823173 0.0432012689 0.0196106126 0.3156685696 0.0577401152 0.0120058874 0.3733154626 0.0518668353 0.0035608207 0.3345118431 0.0627054171 0.0056503031 0.2076755798 0.0301465317 0.0067968839 0.3460394209 0.0718345259 0.0137185643 0.2018775498 0.0414636610 0.0190861905 0.0265379823 0.0128099358 0.0151675263 0.0050575648 0.0236578670 0.0134723580 0.3846604552 0.0620915798 0.0125534027 0.1077127518 0.0469745434 0.0245627092 0.2359705483 0.0518071850 0.0228947373 0.1325496289 0.0147125590 -0.0002020623 0.1136944960 0.0593889591 0.0203465313 0.0718800403 0.0012975912 0.0106400373 0.0774471805 0.0030934699 0.0135520453 0.0597057368 0.0206900098 0.0156438030 0.2194911256 0.0301851469 0.0004258520 0.3384223634 0.0180984579 0.0006305038 0.2187764774 0.0232932214 -0.0008064855 0.2424668948 0.0307389733 0.0074857512 0.1859048637 0.0439863125 0.0243784406 0.2784372745 0.0433140392 0.0018212396 0.4673232846 0.0574295768 0.0083510937 0.3177235747 0.0724980471 0.0122822064 0.3800049694 0.0700837940 0.0088698012 0.1809468936 0.0557396011 0.0062293567 0.1897747526 0.0456092626 -0.0003481790 0.2285714349 0.0460048622 0.0270965702 0.2171530241 0.0363170697 0.0246046885 0.2230287297 0.0415370390 0.0222266906 0.2697883604 0.0707382233 0.0066328038 0.1210915139 0.0081484947 0.0270349404 0.1432014133 0.0305012419 -0.0001209444 0.1428671784 0.0252699307 0.0070072722 0.1216383866 0.0159703288 0.0092441845 0.0925763017 0.0217137169 0.0077786027 0.0388392503 0.0087669368 0.0129369387 0.2250165304 0.0449108757 0.0023644384 0.3751727385 0.0329210861 -0.0003699614 0.3592090038 0.0286533770 -0.0001628205 0.3909836205 0.0165760064 -0.0004360422 0.2272139053 0.0279219162 0.0026912295 0.4104668165 0.0457424050 0.0030835846 0.3446619642 0.0751003046 0.0046729381 0.4635513818 0.0644739586 0.0079517135 0.4014519609 0.0584018038 0.0054029905 0.2464211929 0.0658912840 0.0118807682 0.2550550351 0.0423797909 0.0253171920 0.1953388018 0.0752719110 0.0315812175 0.2294033968 0.0585197120 0.0248832273 0.1957433583 0.0567388190 0.0293454726 0.0609354718 0.0596063359 0.0273199444 0.2478474775 0.0626745549 0.0272207031 0.1382017265 0.0751385905 0.0035614267 0.1357570217 0.0831348375 0.0128373070 0.1330302023 0.0900002407 0.0067931154 0.1168801620 0.0219130874 0.0165494341 0.0717712936 0.0545653327 0.0228009698 0.2153058634 0.0512706972 0.0047238062 0.2419883844 0.0437014911 0.0033735064 0.1779263924 0.0574849367 0.0062287733 0.1294351179 0.0384848688 0.0222996440 0.4179192112 0.0299245442 -0.0001530071 0.3409232218 0.0706094837 0.0076781854 0.3527545187 0.0727236298 0.0127651222 0.3902739386 0.0709869271 0.0041829552 0.3135724080 0.0769557360 0.0103201423 0.1703886004 0.0505599224 0.0063400428 0.4574618756 0.0630786583 0.0083508435 0.2263526910 0.0496995879 0.0207932717 0.0714518756 0.0483053775 0.0314188549 0.1511295480 0.0430675087 0.0261970886 0.0458289899 0.0765830840 0.0145588594 0.2033754896 0.0782705318 0.0306497845 0.1226498439 0.0542654000 0.0130065399 0.1291372048 0.0666984719 0.0112488958 0.1029834983 0.0840574900 0.0118964779 0.1110275486 0.0111688933 0.0078213808 0.1229285632 0.0383838401 0.0141088574 0.2232159033 0.0496588761 0.0006957873 0.2841738330 0.0488143045 0.0005441239 0.1944215530 0.0402743064 -0.0007089253 0.1133882306 0.0301218493 0.0140106289 0.3056644662 0.0566664812 0.0000528558 0.3178340499 0.0753754555 0.0058371152 0.4789268909 0.078203
[...]
      <PointData Scalars="smoothLength">
        <DataArray type="Float32" Name="smoothLength" format="ascii">
 0.0065000000 0.0065000000 0.0065000000 0.0065000000 0.0065000000 0.0065000000 0.0065000000 0.0065000000 0.0065000000 0.0065000000 0.0065000000 0.0065000000 0.0065000000 0.0065000000 0.0065000000 0.0065000000 0.0065000000 0.0065000000 0.0065000000 0.0065000000 0.0065000000 0.0065000000 0.0065000000 0.0065000000 0.0065000000 0.0065000000 0.0065000000 0.0065000000 0.0065000000 0.0065000000 0.0065000000 0.0065000000 0.0065000000 0.0065000000 0.0065000000 0.0065000000 0.0065000000 0.0065000000 0.0065000000 0.0065000000 0.0065000000 0.0065000000 0.0065000000 0.0065000000 0.0065000000 0.0065000000 0.0065000000 0.0065000000 0.0065000000 0.0065000000 0.0065000000 0.0065000000 0.0065000000 0.0065000000 0.0065000000 0.0065000000 0.0065000000 0.0065000000 0.0065000000 0.0065000000 0.0065000000 0.0065000000 0.0065000000 0.0065000000 0.0065000000 0.0065000000 0.0065000000 0.0065000000 0.0065000000 0.0065000000 0.0065000000 0.0065000000 0.0065000000 0.0065000000 0.0065000000 0.0065000000 0.0065000000 0.0065000000 0.0065000000 0.0065000000 0.0065000000 0.0065000000 0.0065000000 0.0065000000 0.0065000000 0.0065000000 0.0065000000 0.0065000000 0.0065000000 0.0065000000 0.0065000000 0.0065000000 0.0065000000 0.0065000000 0.0065000000 0.0065000000 0.0065000000 0.0065000000 0.0065000000 0.0065000000 0.0065000000 0.0065000000 0.0065000000 0.0065000000 0.0065000000 0.0065000000 0.0065000000 0.0065000000 0.0065000000 0.0065000000 0.0065000000 0.0065000000 0.0065000000 0.0065000000 0.0065000000 0.0065000000 0.0065000000 0.0065000000 0.0065000000 0.0065000000 0.0065000000 0.0065000000 0.0065000000 0.0065000000 0.0065000000 0.0065000000 0.0065000000 0.0065000000 0.0065000000 0.0065000000 0.0065000000 0.0065000000 0.0065000000 0.0065000000 0.0065000000 0.0065000000 0.0065000000 0.0065000000 0.0065000000 0.0065000000 0.0065000000 0.0065000000 0.0065000000 0.0065000000 0.0065000000 0.0065000000 0.0065000000 0.0065000000 0.0065000000 0.0065000000 0.0065000000 0.0065000000 0.0065000000 0.0065000000 0.0065000000 0.0065000000 0.0065000000 0.0065000000 0.0065000000 0.0065000000 0.0065000000 0.0065000000 0.0065000000 0.0065000000 0.0065000000 0.0065000000 0.0065000000 0.0065000000 0.0065000000 0.0065000000 0.0065000000 0.0065000000 0.0065000000 0.0065000000 0.0065000000 0.0065000000 0.0065000000 0.0065000000 0.0065000000 0.0065000000 0.0065000000 0.0065000000 0.0065000000 0.0065000000 0.0065000000 0.0065000000 0.0065000000 0.0065000000 0.0065000000 0.0065000000 0.0065000000 0.0065000000 0.0065000000 0.0065000000 0.0065000000 0.0065000000 0.0065000000 0.0065000000 0.0065000000 0.0065000000 0.0065000000 0.0065000000 0.0065000000 0.0065000000 0.0065000000 0.0065000000 0.0065000000 0.0065000000 0.0065000000 0.0065000000 0.0065000000 0.0065000000 0.0065000000 0.0065000000 0.0065000000 0.0065000000 0.0065000000 0.0065000000 0.0065000000 0.0065000000 0.0065000000 0.0065000000 0.0065000000 0.0065000000 0.0065000000 0.0065000000 0.0065000000 0.0065000000 0.0065000000 0.0065000000 0.0065000000 0.0065000000 0.0065000000 0.0065000000 0.0065000000 0.0065000000 0.0065000000 0.0065000000 0.0065000000 0.0065000000 0.0065000000 0.0065000000 0.0065000000 0.0065000000 0.0065000000 0.0065000000 0.0065000000 0.0065000000 0.0065000000 0.0065000000 0.0065000000 0.0065000000 0.0065000000 0.0065000000 0.0065000000 0.0065000000 0.0065000000 0.0065000000 0.0065000000 0.0065000000 0.0065000000 0.0065000000 0.0065000000 0.0065000000 0.0065000000 0.0065000000 0.0065000000 0.0065000000 0.0065000000 0.0065000000 0.0065000000 0.0065000000 0.0065000000 0.0065000000 0.0065000000 0.0065000000 0.0065000000 0.0065000000 0.0065000000 0.0065000000 0.0065000000 0.0065000000 0.0065000000 0.0065000000 0.0065000000 0.0065000000 0.0065000000 0.0065000000 0.0065000000 0.0065000000 0.0065000000 0.0065000000 0.0065000000 0.0065000000 0.0065000000 0.0065000000 0.0065000000 0.0065000000 0.0065000000 0.0065000000 0.0065000000 0.0065000000 0.0065000000 0.0065000000 0.0065000000 0.0065000000 0.0065000000 0.0065000000 0.0065000000 0.0065000000 0.0065000000 0.0065000000 0.0065000000 0.0065000000 0.0065000000 0.0065000000 0.0065000000 0.0065000000 0.0065000000 0.0065000000 0.0065000000 0.0065000000 0.0065000000 0.0065000000 0.0065000000 0.0065000000 0.0065000000 0.0065000000 0.0065000000 0.0065000000 0.0065000000 0.0065000000 0.0065000000 0.0065000000 0.0065000000 0.0065000000 0.0065000000 0.0065000000 0.0065000000 0.0065000000 0.0065000000 0.0065000000 0.0065000000 0.0065000000 0.0065000000 0.0065000000 0.0065000000 0.0065000000 0.0065000000 0.0065000000 0.0065000000 0.0065000000 0.0065000000 0.0065000000 0.0065000000 0.0065000000 0.0065000000 0.0065000000 0.0065000000 0.0065000000 0.0065000000 0.0065000000 0.0065000000 0.0065000000 0.0065000000 0.0065000000 0.0065000000 0.0065000000 0.0065000000 0.0065000000 0.0065000000 0.0065000000 0.0065000000 0.0065000000 0.0065000000 0.0065000000 0.0065000000 0.0065000000 0.0065000000 0.0065000000 0.0065000000 0.0065000000 0.0065000000 0.0065000000 0.0065000000 0.0065000000 0.0065000000 0.0065000000 0.0065000000 0.0065000000 0.0065000000 0.0065000000 0.0065000000 0.0065000000 0.0065000000 0.0065000000 0.0065000000 0.0065000000 0.0065000000 0.0065000000 0.0065000000 0.0065000000 0.0065000000 0.0065000000 0.0065000000 0.0065000000 0.0065000000 0.0065000000 0.0065000000 0.0065000000 0.0065000000 0.0065000000 0.0065000000 0.0065000000 0.0065000000 0.0065000000 0.0065000000 0.0065000000 0.0065000000 0.0065000000 0.0065000000 0.0065000000 0.0065000000 0.0065000000 0.0065000000 0.0065000000 0.0065000000 0.0065000000 0.0065000000 0.0065000000 0.0065000000 0.0065000000 0.0065000000 0.0065000000 0.0065000000 0.0065000000 0.0065000000 0.0065000000 0.0065000000 0.0065000000 0.0065000000 0.0065000000 0.0065000000 0.0065000000 0.0065000000 0.0065000000 0.0065000000 0.0065000000 0.0065000000 0.0065000000 0.0065000000 0.0065000000 0.0065000000 0.0065000000 0.0065000000 0.0065000000 0.0065000000 0.0065000000 0.0065000000 0.0065000000 0.0065000000 0.0065000000 0.0065000000 0.0065000000 0.0065000000 0.0065000000 0.0065000000 0.0065000000 0.0065000000 0.0065000000 0.0065000000 0.0065000000 0.0065000000 0.0065000000 0.0065000000 0.0065000000 0.0065000000 0.0065000000 0.0065000000 0.0065000000 0.0065000000 0.0065000000 0.0065000000 0.0065000000 0.0065000000 0.0065000000 0.0065000000 0.0065000000 0.0065000000 0.0065000000 0.0065000000 0.0065000000 0.0065000000 0.0065000000 0.0065000000 0.0065000000 0.0065000000 0.0065000000 0.0065000000 0.0065000000 0.0065000000 0.0065000000 0.0065000000 0.0065000000 0.0065000000 0.0065000000 0.0065000000 0.0065000000 0.0065000000 0.0065000000 0.0065000000 0.0065000000 0.0065000000 0.0065000000 0.0065000000 0.0065000000 0.0065000000 0.0065000000 0.0065000000 0.0065000000 0.0065000000 0.0065000000 0.0065000000 0.0065000000 0.0065000000 0.0065000000 0.0065000000 0.0065000000 0.0065000000 0.0065000000 0.0065000000 0.0065000000 0.0065000000 0.0065000000 0.0065000000 0.0065000000 0.0065000000 0.0065000000 0.0065000000 0.0065000000 0.0065000000 0.0065000000 0.0065000000 0.0065000000 0.0065000000 0.0065000000 0.0065000000 0.0065000000 0.0065000000 0.0065000000 0.0065000000 0.0065000000 0.0065000000 0.0065000000 0.0065000000 0.0065000000 0.0065000000 0.0065000000 0.0065000000 0.0065000000 0.0065000000 0.0065000000 0.0065000000 0.0065000000 0.0065000000 0.0065000000 0.0065000000 0.0065000000 0.0065000000 0.0065000000 0.0065000000 0.0065000000 0.0065000000 0.0065000000 0.0065000000 0.0065000000 0.0065000000 0.0065000000 0.0065000000 0.0065000000 0.0065000000 0.0065000000 0.0065000000 0.0065000000 0.0065000000 0.0065000000 0.0065000000 0.0065000000 0.0065000000 0.0065000000 0.0065000000 0.0065000000 0.0065000000 0.0065000000 0.0065000000 0.0065000000 0.0065000000 0.0065000000 0.0065000000 0.0065000000 0.0065000000 0.0065000000 0.0065000000 0.0065000000 0.0065000000 0.0065000000 0.0065000000 0.0065000000 0.0065000000 0.0065000000 0.0065000000 0.0065000000 0.0065000000 0.0065000000 0.0065000000 0.0065000000 0.0065000000 0.0065000000 0.0065000000 0.0065000000 0.0065000000 0.0065000000 0.0065000000 0.0065000000 0.0065000000 0.0065000000 0.0065000000 0.0065000000 0.0065000000 0.0065000000 0.0065000000 0.0065000000 0.0065000000 0.0065000000 0.0065000000 0.0065000000 0.0065000000 0.0065000000 0.0065000000 0.0065000000 0.0065000000 0.0065000000 0.0065000000 0.0065000000 0.0065000000 0.0065000000 0.0065000000 0.0065000000 0.0065000000 0.0065000000 0.0065000000 0.0065000000 0.0065000000 0.0065000000 0.0065000000 0.0065000000 0.0065000000 0.0065000000 0.0065000000 0.0065000000 0.0065000000 0.0065000000 0.0065000000 0.0065000000 0.0065000000 0.0065000000 0.0065000000 0.0065000000 0.0065000000 0.0065000000 0.0065000000 0.0065000000 0.0065000000 0.0065000000 0.0065000000 0.0065000000 0.0065000000 0.0065000000 0.0065000000 0.0065000000 0.0065000000 0.0065000000 0.0065000000 0.0065000000 0.0065000000 0.0065000000 0.0065000000 0.0065000000 0.0065000000 0.0065000000 0.0065000000 0.0065000000 0.0065000000 0.0065000000 0.0065000000 0.0065000000 0.0065000000 0.0065000000 0.0065000000 0.0065000000 0.0065000000 0.0065000000 0.0065000000 0.0065000000 0.0065000000 0.0065000000 0.0065000000 0.0065000000 0.0065000000 0.0065000000 0.0065000000 0.0065000000 0.0065000000 0.0065000000 0.0065000000 0.0065000000 0.0065000000 0.0065000000 0.0065000000 0.0065000000 0.0065000000 0.0065000000 0.0065000000 0.0065000000 0.0065000000 0.0065000000 0.0065000000 0.0065000000 0.0065000000 0.0065000000 0.0065000000 0.0065000000 0.0065000000 0.0065000000 0.0065000000 0.0065000000 0.0065000000 0.0065000000 0.0065000000 0.0065000000 0.0065000000 0.0065000000 0.0065000000 0.0065000000 0.0065000000 0.0065000000 0.0065000000 0.0065000000 0.0065000000 0.0065000000 0.0065000000 0.0065000000 0.0065000000 0.0065000000 0.0065000000 0.0065000000 0.0065000000 0.0065000000 0.0065000000 0.0065000000 0.0065000000 0.0065000000 0.0065000000 0.0065000000 0.0065000000 0.0065000000 0.0065000000 0.0065000000 0.0065000000 0.0065000000 0.0065000000 0.0065000000 0.0065000000 0.0065000000 0.0065000000 0.0065000000 0.0065000000 0.0065000000 0.0065000000 0.0065000000 0.0065000000 0.0065000000 0.0065000000 0.0065000000 0.0065000000 0.0065000000 0.0065000000 0.0065000000 0.0065000000 0.0065000000 0.0065000000 0.0065000000 0.0065000000 0.0065000000 0.0065000000 0.0065000000 0.0065000000 0.0065000000 0.0065000000 0.0065000000 0.0065000000 0.0065000000 0.0065000000 0.0065000000 0.0065000000 0.0065000000 0.0065000000 0.0065000000 0.0065000000 0.0065000000 0.0065000000 0.0065000000 0.0065000000 0.0065000000 0.0065000000 0.0065000000 0.0065000000 0.0065000000 0.0065000000 0.0065000000 0.0065000000 0.0065000000 0.0065000000 0.0065000000 0.0065000000 0.0065000000 0.0065000000 0.0065000000 0.0065000000 0.0065000000 0.0065000000 0.0065000000 0.0065000000 0.0065000000 0.0065000000 0.0065000000 0.0065000000 0.0065000000 0.0065000000 0.0065000000 0.0065000000 0.0065000000 0.0065000000 0.0065000000 0.0065000000 0.0065000000 0.0065000000 0.0065000000 0.0065000000 0.0065000000 0.0065000000 0.0065000000 0.0065000000 0.0065000000 0.0065000000 0.0065000000 0.0065000000 0.0065000000 0.0065000000 0.0065000000 0.0065000000 0.0065000000 0.0065000000 0.0065000000 0.0065000000 0.0065000000 0.0065000000 0.0065000000 0.0065000000 0.0065000000 0.0065000000 0.0065000000 0.0065000000 0.0065000000 0.0065000000 0.0065000000 0.0065000000 0.0065000000 0.0065000000 0.0065000000 0.0065000000 0.0065000000 0.0065000000 0.0065000000 0.0065000000 0.0065000000 0.0065000000 0.0065000000 0.0065000000 0.0065000000 0.0065000000 0.0065000000 0.0065000000 0.0065000000 0.0065000000 0.0065000000 0.0065000000 0.0065000000 0.0065000000 0.0065000000 0.0065000000 0.0065000000 0.0065000000 0.0065000000 0.0065000000 0.0065000000 0.0065000000 0.0065000000 0.0065000000 0.0065000000 0.0065000000 0.0065000000 0.0065000000 0.0065000000 0.0065000000 0.0065000000 0.0065000000 0.0065000000 0.0065000000 0.0065000000 0.0065000000 0.0065000000 0.0065000000 0.0065000000 0.0065000000 0.0065000000 0.0065000000 0.0065000000 0.0065000000 0.0065000000 0.0065000000 0.0065000000 0.0065000000 0.0065000000 0.0065000000 0.0065000000 0.0065000000 0.0065000000 0.0065000000 0.0065000000 0.0065000000 0.0065000000 0.0065000000 0.0065000000 0.0065000000 0.0065000000 0.0065000000 0.0065000000 0.0065000000 0.0065000000 0.0065000000 0.0065000000 0.0065000000 0.0065000000 0.0065000000 0.0065000000 0.0065000000 0.0065000000 0.0065000000 0.0065000000 0.0065000000 0.0065000000 0.0065000000 0.0065000000 0.0065000000 0.0065000000 0.0065000000 0.0065000000 0.0065000000 0.0065000000 0.0065000000 0.0065000000 0.0065000000 0.0065000000 0.0065000000 0.0065000000 0.0065000000 0.0065000000 0.0065000000 0.0065000000 0.0065000000 0.0065000000 0.0065000000 0.0065000000 0.0065000000 0.0065000000 0.0065000000 0.0065000000 0.0065000000 0.0065000000 0.0065000000 0.0065000000 0.0065000000 0.0065000000 0.0065000000 0.0065000000 0.0065000000 0.0065000000 0.0065000000 0.0065000000 0.0065000000 0.0065000000 0.0065000000 0.0065000000 0.0065000000 0.0065000000 0.0065000000 0.0065000000 0.0065000000 0.0065000000 0.0065000000 0.0065000000 0.0065000000 0.0065000000 0.0065000000 0.0065000000 0.0065000000 0.0065000000 0.0065000000 0.0065000000 0.0065000000 0.0065000000 0.0065000000 0.0065000000 0.0065000000 0.0065000000 0.0065000000 0.0065000000 0.0065000000 0.0065000000 0.0065000000 0.0065000000 0.0065000000 0.0065000000 0.0065000000 0.0065000000 0.0065000000 0.0065000000 0.0065000000 0.0065000000 0.0065000000 0.0065000000 0.0065000000 0.0065000000 0.0065000000 0.0065000000 0.0065000000 0.0065000000 0.0065000000 0.0065000000 0.0065000000 0.0065000000 0.0065000000 0.0065000000 0.0065000000 0.0065000000 0.0065000000 0.0065000000 0.0065000000 0.0065000000 0.0065000000 0.0065000000 0.0065000000 0.0065000000 0.0065000000 0.0065000000 0.0065000000 0.0065000000 0.0065000000 0.0065000000 0.0065000000 0.0065000000 0.0065000000 0.0065000000 0.0065000000 0.0065000000 0.0065000000 0.0065000000 0.0065000000 0.0065000000 0.0065000000 0.0065000000 0.0065000000 0.0065000000 0.0065000000 0.0065000000 0.0065000000 0.0065000000 0.0065000000 0.0065000000 0.0065000000 0.0065000000 0.0065000000 0.0065000000 0.0065000000 0.0065000000 0.0065000000 0.0065000000 0.0065000000 0.0065000000 0.0065000000 0.0065000000 0.0065000000 0.0065000000 0.0065000000 0.0065000000 0.0065000000 0.0065000000 0.0065000000 0.0065000000 0.0065000000 0.0065000000 0.0065000000 0.0065000000 0.0065000000 0.0065000000 0.0065000000 0.0065000000 0.0065000000 0.0065000000 0.0065000000 0.0065000000 0.0065000000 0.0065000000 0.0065000000 0.0065000000 0.0065000000 0.0065000000 0.0065000000 0.0065000000 0.0065000000 0.0065000000 0.0065000000 0.0065000000 0.0065000000 0.0065000000 0.0065000000 0.0065000000 0.0065000000 0.0065000000 0.0065000000 0.0065000000 0.0065000000 0.0065000000 0.0065000000 0.0065000000 0.0065000000 0.0065000000 0.0065000000 0.0065000000 0.0065000000 0.0065000000 0.0065000000 0.0065000000 0.0065000000 0.0065000000 0.0065000000 0.0065000000 0.0065000000 0.0065000000 0.0065000000 0.0065000000 0.0065000000 0.0065000000 0.0065000000 0.0065000000 0.0065000000 0.0065000000 0.0065000000 0.0065000000 0.0065000000 0.0065000000 0.0065000000 0.0065000000 0.0065000000 0.0065000000 0.0065000000 0.0065000000 0.0065000000 0.0065000000 0.0065000000 0.0065000000 0.0065000000 0.0065000000 0.0065000000 0.0065000000 0.0065000000 0.0065000000 0.0065000000 0.0065000000 0.0065000000 0.0065000000 0.0065000000 0.0065000000 0.0065000000 0.0065000000 0.0065000000 0.0065000000 0.0065000000 0.0065000000 0.0065000000 0.0065000000 0.0065000000 0.0065000000 0.0065000000 0.0065000000 0.0065000000 0.0065000000 0.0065000000 0.0065000000 0.0065000000 0.0065000000 0.0065000000 0.0065000000 0.0065000000 0.0065000000 0.0065000000 0.0065000000 0.0065000000 0.0065000000 0.0065000000 0.0065000000 0.0065000000 0.0065000000 0.0065000000 0.0065000000 0.0065000000 0.0065000000 0.0065000000 0.0065000000 0.0065000000 0.0065000000 0.0065000000 0.0065000000 0.0065000000 0.0065000000 0.0065000000 0.0065000000 0.0065000000 0.0065000000 0.0065000000 0.0065000000 0.0065000000 0.0065000000 0.0065000000 0.0065000000 0.0065000000 0.0065000000 0.0065000000 0.0065000000 0.0065000000 0.0065000000 0.0065000000 0.0065000000 0.0065000000 0.0065000000 0.0065000000 0.0065000000 0.0065000000 0.0065000000 0.0065000000 0.0065000000 0.0065000000 0.0065000000 0.0065000000 0.0065000000 0.0065000000 0.0065000000 0.0065000000 0.0065000000 0.0065000000 0.0065000000 0.0065000000 0.0065000000 0.0065000000 0.0065000000 0.0065000000 0.0065000000 0.0065000000 0.0065000000 0.0065000000 0.0065000000 0.0065000000 0.0065000000 0.0065000000 0.0065000000 0.0065000000 0.0065000000 0.0065000000 0.0065000000 0.0065000000 0.0065000000 0.0065000000 0.0065000000 0.0065000000 0.0065000000 0.0065000000 0.0065000000 0.0065000000 0.0065000000 0.0065000000 0.0065000000 0.0065000000 0.0065000000 0.0065000000 0.0065000000 0.0065000000 0.0065000000 0.0065000000 0.0065000000 0.0065000000 0.0065000000 0.0065000000 0.0065000000 0.0065000000 0.0065000000 0.0065000000 0.0065000000 0.0065000000 0.0065000000 0.0065000000 0.0065000000 0.0065000000 0.0065000000 0.0065000000 0.0065000000 0.0065000000 0.0065000000 0.0065000000 0.0065000000 0.0065000000 0.0065000000 0.0065000000 0.0065000000 0.0065000000 0.0065000000 0.0065000000 0.0065000000 0.0065000000 0.0065000000 0.0065000000 0.0065000000 0.0065000000 0.0065000000 0.0065000000 0.0065000000 0.0065000000 0.0065000000 0.0065000000 0.0065000000 0.0065000000 0.0065000000 0.0065000000 0.0065000000 0.0065000000 0.0065000000 0.0065000000 0.0065000000 0.0065000000 0.0065000000 0.0065000000 0.0065000000 0.0065000000 0.0065000000 0.0065000000 0.0065000000 0.0065000000 0.0065000000 0.0065000000 0.0065000000 0.0065000000 0.0065000000 0.0065000000 0.0065000000 0.0065000000 0.0065000000 0.0065000000 0.0065000000 0.0065000000 0.0065000000 0.0065000000 0.0065000000 0.0065000000 0.0065000000 0.0065000000 0.0065000000 0.0065000000 0.0065000000 0.0065000000 0.0065000000 0.0065000000 0.0065000000 0.0065000000 0.0065000000 0.0065000000 0.0065000000 0.0065000000 0.0065000000 0.0065000000 0.0065000000 0.0065000000 0.0065000000 0.0065000000 0.0065000000 0.0065000000 0.0065000000 0.0065000000 0.0065000000 0.0065000000 0.0065000000 0.0065000000 0.0065000000 0.0065000000 0.0065000000 0.0065000000 0.0065000000 0.0065000000 0.0065000000 0.0065000000 0.0065000000 0.0065000000 0.0065000000 0.0065000000 0.0065000000 0.0065000000 0.0065000000 0.0065000000 0.0065000000 0.0065000000 0.0065000000 0.0065000000 0.0065000000 0.0065000000 0.0065000000 0.0065000000 0.0065000000 0.0065000000 0.0065000000 0.0065000000 0.0065000000 0.0065000000 0.0065000000 0.0065000000 0.0065000000 0.0065000000 0.0065000000 0.0065000000 0.0065000000 0.0065000000 0.0065000000 0.0065000000 0.0065000000 0.0065000000 0.0065000000 0.0065000000 0.0065000000 0.0065000000 0.0065000000 0.0065000000 0.0065000000 0.0065000000 0.0065000000 0.0065000000 0.0065000000 0.0065000000 0.0065000000 0.0065000000 0.0065000000 0.0065000000 0.0065000000 0.0065000000 0.0065000000 0.0065000000 0.0065000000 0.0065000000 0.0065000000 0.0065000000 0.0065000000 0.0065000000 0.0065000000 0.0065000000 0.0065000000 0.0065000000 0.0065000000 0.0065000000 0.0065000000 0.0065000000 0.0065000000 0.0065000000 0.0065000000 0.0065000000 0.0065000000 0.0065000000 0.0065000000 0.0065000000 0.0065000000 0.0065000000 0.0065000000 0.0065000000 0.0065000000 0.0065000000 0.0065000000 0.0065000000 0.0065000000 0.0065000000 0.0065000000 0.0065000000 0.0065000000 0.0065000000 0.0065000000 0.0065000000 0.0065000000 0.0065000000 0.0065000000 0.0065000000 0.0065000000 0.0065000000 0.0065000000 0.0065000000 0.0065000000 0.0065000000 0.0065000000 0.0065000000 0.0065000000 0.0065000000 0.0065000000 0.0065000000 0.0065000000 0.0065000000 0.006500000