<?xml version="1.0"?>
<VTKFile type="UnstructuredGrid" version="0.1" byte_order="LittleEndian">
  <UnstructuredGrid>
    <FieldData>
      <DataArray type="Float32" Name="TIME"  NumberOfTuples="1" format="ascii"> 0.6995182012 </DataArray>
      <DataArray type="Int32"   Name="STEP"  NumberOfTuples="1" format="ascii"> 9380 </DataArray>
    </FieldData>
    <Piece NumberOfPoints="18081" NumberOfCells="18081">
      <Points>
        <DataArray type="Float32" NumberOfComponents="3" format="ascii">
 0.0960457163 0.0242041586 0.0035763244 0.1207597343 0.0293560693 -0.0001451231 0.1332597210 0.0266287717 -0.0002413513 0.1579649569 0.0258719826 0.0004215624 0.1838920403 0.0255804009 0.0002825312 0.1953702381 0.0251705306 0.0006087672 0.2536615342 0.0158545018 -0.0005201143 0.2934527323 0.0250606100 -0.0004989818 0.3564064335 0.0161872171 0.0012284398 0.3762372163 0.0169302410 0.0143571564 0.3907358316 0.0200882626 0.0008243513 0.4810998432 0.0164694381 0.0200081946 0.4911021868 0.0190764892 0.0105077588 0.4938574020 0.0173056800 0.0314793924 0.4796852905 0.0213404439 0.0462052016 0.4453017428 0.0164098604 0.0367457419 0.4498282554 0.0152207034 0.0429040289 0.4287099075 0.0185072826 0.0240421796 0.3889583858 -0.0006663375 0.0207444357 0.4500115141 0.0023990243 0.0526947391 0.4433324994 0.0183466163 0.0475031553 0.0976359862 0.0248439209 -0.0011384193 0.1064736689 0.0258381621 0.0000112545 0.1294037758 0.0272892342 0.0034201350 0.1541329789 0.0272302658 0.0037127244 0.2224574600 0.0288528646 0.0016144305 0.2684213241 0.0234691901 -0.0009113939 0.3111060566 0.0281792599 0.0003891988 0.3592231230 0.0211735172 0.0001503836 0.3875582193 0.0241286283 0.0033837469 0.4846423824 0.0190237227 0.0044160482 0.4884658229 0.0219217392 0.0116859869 0.4968240777 0.0184610586 0.0123472394 0.5008713989 0.0247522430 0.0316187933 0.4594475147 0.0202405809 0.0438145378 0.4656681750 0.0201989963 0.0483944518 0.4418214207 0.0159072088 0.0362384538 0.4752677827 0.0136299411 0.0596487496 0.3967747861 0.0092085190 0.0227420334 0.3937851087 0.0071758742 0.0184967493 0.3895648539 0.0154212781 0.0263683836 0.4619552762 0.0445844696 0.0612415750 0.1071776990 0.0308708602 -0.0007706374 0.1142791374 0.0314069815 -0.0004486274 0.1266045993 0.0301843210 -0.0006147090 0.1332804979 0.0326412708 -0.0005740526 0.1676442165 0.0299070314 -0.0009267509 0.2355577886 0.0273332697 0.0000338911 0.2869773516 0.0304750296 -0.0000172645 0.3487077317 0.0221076927 -0.0000217564 0.3743300993 0.0272614011 0.0021779823 0.4003099562 0.0288454764 -0.0011869002 0.4848858386 0.0208048634 0.0119790072 0.4955587489 0.0230928166 0.0021202107 0.5003868515 0.0194373230 0.0190085713 0.4822323132 0.0266116549 0.0477645944 0.4998460577 0.0138310948 0.0302102510 0.4134186114 0.0153130673 0.0103112121 0.4372862514 0.0158089790 0.0354910725 0.4515322615 0.0173480894 0.0491835958 0.4976411676 0.0159332654 0.0619179299 0.4786020413 0.0084724621 0.0604870424 0.4475746221 0.0155571620 0.0518504310 0.0966463610 0.0297652861 0.0003051655 0.1085909140 0.0355244331 0.0001039710 0.1370328234 0.0382922257 -0.0005050353 0.1522351555 0.0278344238 -0.0009693488 0.2064639759 0.0286431455 -0.0002264130 0.2586706882 0.0259810916 -0.0007806332 0.3014480143 0.0231327306 -0.0010969420 0.3540431600 0.0233404152 -0.0004263920 0.3820074237 0.0187746301 0.0004967650 0.4750481710 0.0171681081 -0.0017849260 0.4907787948 0.0260468299 0.0025145597 0.4966342951 0.0222952715 0.0178012587 0.5013405535 0.0167748290 0.0040535062 0.4974395419 0.0102090614 0.0450961999 0.4518266678 0.0245336606 0.0455281960 0.5020806608 0.0109339720 0.0581507221 0.4178172674 0.0227259303 0.0193729406 0.4326716541 0.0285083353 0.0320471222 0.4138429873 0.0147335434 0.0206243296 0.4637209996 0.0183975223 0.0572731020 0.4588229538 0.0234813497 0.0568355243 0.0866175404 0.0307611750 0.0002616819 0.1208583949 0.0345520757 -0.0004616601 0.1521831949 0.0331401463 -0.0000763757 0.1601701824 0.0314037929 -0.0007483343 0.1973954195 0.0306938223 -0.0008347045 0.2326257275 0.0319125238 -0.0008109564 0.2764986656 0.0295601385 -0.0014734536 0.3476221921 0.0294497255 0.0009392208 0.3773540829 0.0364631605 0.0026739285 0.4077122512 0.0249946656 0.0006029665 0.4889871376 0.0295242017 -0.0003114974 0.4986240370 0.0273768214 0.0151840902 0.5003804037 0.0265967237 0.0226502483 0.4954118282 0.0286611529 0.0491306169 0.4771912040 0.0242424532 0.0505846741 0.4186678171 0.0253755439 0.0154031822 0.4313776947 0.0230441001 0.0274650499 0.4428005062 0.0303682459 0.0453674047 0.4960936719 0.0149903917 0.0617160213 0.4554698391 0.0251604340 0.0549138707 0.4898274774 0.0223615096 0.0657522761 0.0927791571 0.0324216206 -0.0005345663 0.1199592464 0.0387491055 0.0000444369 0.1439521841 0.0378094087 -0.0006290000 0.1573950103 0.0382819117 -0.0011315836 0.1657818804 0.0339562944 0.0004495092 0.2228498373 0.0375320981 0.0002763010 0.2805244615 0.0335749435 -0.0002529347 0.3474026946 0.0339643199 -0.0010101680 0.3709347877 0.0340298342 0.0012167454 0.3932532743 0.0290130626 -0.0005776974 0.4829294292 0.0251885252 0.0146672853 0.4945294147 0.0294531090 0.0183243403 0.4915298844 0.0369370529 0.0354610313 0.4996379700 0.0409700352 0.0454733461 0.4998754914 0.0254195532 0.0514720119 0.4244892328 0.0283210840 0.0217362596 0.4610109847 0.0241478440 0.0492637660 0.4032130858 0.0265954578 0.0199760525 0.4168510772 0.0216405999 0.0237836752 0.4640497140 0.0308465352 0.0596030800 0.4731683030 0.0244885421 0.0604075514 0.0894751887 0.0377258661 -0.0010012866 0.1153268776 0.0442522379 -0.0006660485 0.1511133675 0.0378609189 0.0003218061 0.1823209790 0.0375254116 0.0006417235 0.1885954306 0.0436809426 -0.0002841640 0.2385210311 0.0324161007 0.0000226929 0.3146503262 0.0383925469 -0.0008731343 0.3582209676 0.0362141500 0.0003052755 0.3826122214 0.0326691675 0.0014142114 0.4168920499 0.0332738872 -0.0010379199 0.4795342763 0.0350448605 0.0190264144 0.4985983600 0.0406145136 0.0205157951 0.4952862672 0.0369858777 0.0386880397 0.5000305446 0.0257405855 0.0407748357 0.4714742948 0.0388379754 0.0505412878 0.4614736605 0.0379060865 0.0528505808 0.4151729967 0.0357783033 0.0168635247 0.4406178706 0.0269516179 0.0407858219 0.3925522411 0.0254655253 0.0266448996 0.4821669022 0.0260884185 0.0642030108 0.4245535386 0.0226446187 0.0328864092 0.0970335644 0.0426525731 -0.0006932819 0.1233227583 0.0436043934 -0.0013335870 0.1395075280 0.0430751402 -0.0007063463 0.1650802403 0.0396962283 0.0001378999 0.1764491564 0.0429326783 -0.0004771985 0.2250176536 0.0480777377 -0.0004465639 0.2862648921 0.0349357456 -0.0009528456 0.3423321305 0.0489307849 0.0003430416 0.3715926858 0.0393339523 0.0005397412 0.3869414729 0.0393767977 0.0031006189 0.4858313658 0.0340017264 0.0043616914 0.4959342269 0.0368835896 0.0114585190 0.4969908999 0.0451348443 0.0316129582 0.4730880948 0.0395932028 0.0479559008 0.4973002447 0.0401588764 0.0496216873 0.4592486086 0.0449952029 0.0513911537 0.4099045161 0.0391616608 0.0186333016 0.3895012228 0.0376488566 0.0270694667 0.4961590415 0.0276479491 0.0595967630 0.4317024849 0.0394428762 0.0377362642 0.4471499542 0.0502271916 0.0510566320 0.0938232197 0.0470908247 -0.0002205356 0.1227579434 0.0509196103 -0.0004078418 0.1595696634 0.0465430790 -0.0004021698 0.1665440422 0.0442057895 -0.0007944592 0.1817398742 0.0453519179 -0.0003525590 0.2432678497 0.0435416465 0.0002732990 0.3086184462 0.0421563197 -0.0008104946 0.3532800582 0.0433370558 -0.0005535243 0.3783593390 0.0420664828 -0.0004422992 0.3977434487 0.0456835289 0.0049502428 0.4847746332 0.0372261087 0.0146840620 0.5007779515 0.0501434781 0.0134438314 0.4957446095 0.0478322055 0.0362874247 0.4974776344 0.0465474906 0.0448422142 0.4685131312 0.0488541742 0.0498651883 0.4795336928 0.0484141952 0.0477280740 0.4617504612 0.0518581618 0.0545566964 0.4566622120 0.0320576736 0.0545598057 0.4666193903 0.0507057536 0.0580674952 0.4814891541 0.0615489772 0.0618036390 0.4133691469 0.0267758186 0.0289631160 0.1001044219 0.0513631779 -0.0009506187 0.1296635048 0.0543062283 -0.0010196487 0.1457614054 0.0498445198 -0.0001741160 0.1662948001 0.0490824668 0.0005575443 0.1713619441 0.0468657359 -0.0002525736 0.2441970861 0.0511177499 -0.0004983229 0.2977962365 0.0478918567 -0.0010173779 0.3311383027 0.0478352593 -0.0008755035 0.3762086189 0.0473206954 0.0003283430 0.3865937438 0.0428893133 -0.0017688476 0.4882131368 0.0448753637 -0.0006488500 0.4973384636 0.0491659018 0.0087324888 0.5002453522 0.0551822780 0.0227041597 0.4365442770 0.0540164868 0.0148813446 0.4890727620 0.0562225105 0.0510377314 0.4769916498 0.0559901673 0.0554729979 0.4323792140 0.0549062521 0.0358956245 0.4471141058 0.0438192456 0.0506775428 0.4506770887 0.0487101113 0.0513678299 0.3935806302 0.0614326082 0.0288630579 0.4181076286 0.0554491471 0.0291496595 0.1067809248 0.0591054722 -0.0003161149 0.1233281020 0.0561596834 0.0001515539 0.1510740868 0.0528097857 0.0003727811 0.1651010754 0.0554619640 0.0004238424 0.1877306259 0.0524028072 -0.0002118771 0.2292309063 0.0532484355 -0.0003170401 0.3110843655 0.0553691039 0.0002051653 0.3468324416 0.0570876353 0.0008257116 0.3795376847 0.0530967292 0.0013526537 0.4015127637 0.0535043186 -0.0010106755 0.4923184480 0.0531188257 0.0044841991 0.4993453470 0.0599094277 0.0153756784 0.5000139204 0.0590288650 0.0259889148 0.4966573744 0.0546129292 0.0415481869 0.4336304542 0.0531529813 0.0294475701 0.4997748607 0.0557222704 0.0561108909 0.4430111186 0.0601838471 0.0458783827 0.3885945640 0.0517481463 0.0305525014 0.4567438870 0.0593620171 0.0528687701 0.3991440672 0.0608244305 0.0229617614 0.4348524729 0.0439205243 0.0426639970 0.0988434971 0.0631826848 -0.0010629983 0.1311406006 0.0642684866 0.0003269196 0.1481015276 0.0574287388 -0.0007531337 0.1598371970 0.0562572915 -0.0009315041 0.1791465002 0.0596910755 -0.0001427317 0.2372529380 0.0581193730 -0.0007685460 0.3023396623 0.0564883739 -0.0009489810 0.3387470077 0.0583555642 -0.0007199048 0.3696681525 0.0577761007 0.0040446178 0.3906306797 0.0588326020 -0.0005702468 0.4900651231 0.0568695411 
[...]
      <PointData Scalars="smoothLength">
        <DataArray type="Float32" Name="smoothLength" format="ascii">
 0.0065000000 0.0065000000 0.0065000000 0.0065000000 0.0065000000 0.0065000000 0.0065000000 0.0065000000 0.0065000000 0.0065000000 0.0065000000 0.0065000000 0.0065000000 0.0065000000 0.0065000000 0.0065000000 0.0065000000 0.0065000000 0.0065000000 0.0065000000 0.0065000000 0.0065000000 0.0065000000 0.0065000000 0.0065000000 0.0065000000 0.0065000000 0.0065000000 0.0065000000 0.0065000000 0.0065000000 0.0065000000 0.0065000000 0.0065000000 0.0065000000 0.0065000000 0.0065000000 0.0065000000 0.0065000000 0.0065000000 0.0065000000 0.0065000000 0.0065000000 0.0065000000 0.0065000000 0.0065000000 0.0065000000 0.0065000000 0.0065000000 0.0065000000 0.0065000000 0.0065000000 0.0065000000 0.0065000000 0.0065000000 0.0065000000 0.0065000000 0.0065000000 0.0065000000 0.0065000000 0.0065000000 0.0065000000 0.0065000000 0.0065000000 0.0065000000 0.0065000000 0.0065000000 0.0065000000 0.0065000000 0.0065000000 0.0065000000 0.0065000000 0.0065000000 0.0065000000 0.0065000000 0.0065000000 0.0065000000 0.0065000000 0.0065000000 0.0065000000 0.0065000000 0.0065000000 0.0065000000 0.0065000000 0.0065000000 0.0065000000 0.0065000000 0.0065000000 0.0065000000 0.0065000000 0.0065000000 0.0065000000 0.0065000000 0.0065000000 0.0065000000 0.0065000000 0.0065000000 0.0065000000 0.0065000000 0.0065000000 0.0065000000 0.0065000000 0.0065000000 0.0065000000 0.0065000000 0.0065000000 0.0065000000 0.0065000000 0.0065000000 0.0065000000 0.0065000000 0.0065000000 0.0065000000 0.0065000000 0.0065000000 0.0065000000 0.0065000000 0.0065000000 0.0065000000 0.0065000000 0.0065000000 0.0065000000 0.0065000000 0.0065000000 0.0065000000 0.0065000000 0.0065000000 0.0065000000 0.0065000000 0.0065000000 0.0065000000 0.0065000000 0.0065000000 0.0065000000 0.0065000000 0.0065000000 0.0065000000 0.0065000000 0.0065000000 0.0065000000 0.0065000000 0.0065000000 0.0065000000 0.0065000000 0.0065000000 0.0065000000 0.0065000000 0.0065000000 0.0065000000 0.0065000000 0.0065000000 0.0065000000 0.0065000000 0.0065000000 0.0065000000 0.0065000000 0.0065000000 0.0065000000 0.0065000000 0.0065000000 0.0065000000 0.0065000000 0.0065000000 0.0065000000 0.0065000000 0.0065000000 0.0065000000 0.0065000000 0.0065000000 0.0065000000 0.0065000000 0.0065000000 0.0065000000 0.0065000000 0.0065000000 0.0065000000 0.0065000000 0.0065000000 0.0065000000 0.0065000000 0.0065000000 0.0065000000 0.0065000000 0.0065000000 0.0065000000 0.0065000000 0.0065000000 0.0065000000 0.0065000000 0.0065000000 0.0065000000 0.0065000000 0.0065000000 0.0065000000 0.0065000000 0.0065000000 0.0065000000 0.0065000000 0.0065000000 0.0065000000 0.0065000000 0.0065000000 0.0065000000 0.0065000000 0.0065000000 0.0065000000 0.0065000000 0.0065000000 0.0065000000 0.0065000000 0.0065000000 0.0065000000 0.0065000000 0.0065000000 0.0065000000 0.0065000000 0.0065000000 0.0065000000 0.0065000000 0.0065000000 0.0065000000 0.0065000000 0.0065000000 0.0065000000 0.0065000000 0.0065000000 0.0065000000 0.0065000000 0.0065000000 0.0065000000 0.0065000000 0.0065000000 0.0065000000 0.0065000000 0.0065000000 0.0065000000 0.0065000000 0.0065000000 0.0065000000 0.0065000000 0.0065000000 0.0065000000 0.0065000000 0.0065000000 0.0065000000 0.0065000000 0.0065000000 0.0065000000 0.0065000000 0.0065000000 0.0065000000 0.0065000000 0.0065000000 0.0065000000 0.0065000000 0.0065000000 0.0065000000 0.0065000000 0.0065000000 0.0065000000 0.0065000000 0.0065000000 0.0065000000 0.0065000000 0.0065000000 0.0065000000 0.0065000000 0.0065000000 0.0065000000 0.0065000000 0.0065000000 0.0065000000 0.0065000000 0.0065000000 0.0065000000 0.0065000000 0.0065000000 0.0065000000 0.0065000000 0.0065000000 0.0065000000 0.0065000000 0.0065000000 0.0065000000 0.0065000000 0.0065000000 0.0065000000 0.0065000000 0.0065000000 0.0065000000 0.0065000000 0.0065000000 0.0065000000 0.0065000000 0.0065000000 0.0065000000 0.0065000000 0.0065000000 0.0065000000 0.0065000000 0.0065000000 0.0065000000 0.0065000000 0.0065000000 0.0065000000 0.0065000000 0.0065000000 0.0065000000 0.0065000000 0.0065000000 0.0065000000 0.0065000000 0.0065000000 0.0065000000 0.0065000000 0.0065000000 0.0065000000 0.0065000000 0.0065000000 0.0065000000 0.0065000000 0.0065000000 0.0065000000 0.0065000000 0.0065000000 0.0065000000 0.0065000000 0.0065000000 0.0065000000 0.0065000000 0.0065000000 0.0065000000 0.0065000000 0.0065000000 0.0065000000 0.0065000000 0.0065000000 0.0065000000 0.0065000000 0.0065000000 0.0065000000 0.0065000000 0.0065000000 0.0065000000 0.0065000000 0.0065000000 0.0065000000 0.0065000000 0.0065000000 0.0065000000 0.0065000000 0.0065000000 0.0065000000 0.0065000000 0.0065000000 0.0065000000 0.0065000000 0.0065000000 0.0065000000 0.0065000000 0.0065000000 0.0065000000 0.0065000000 0.0065000000 0.0065000000 0.0065000000 0.0065000000 0.0065000000 0.0065000000 0.0065000000 0.0065000000 0.0065000000 0.0065000000 0.0065000000 0.0065000000 0.0065000000 0.0065000000 0.0065000000 0.0065000000 0.0065000000 0.0065000000 0.0065000000 0.0065000000 0.0065000000 0.0065000000 0.0065000000 0.0065000000 0.0065000000 0.0065000000 0.0065000000 0.0065000000 0.0065000000 0.0065000000 0.0065000000 0.0065000000 0.0065000000 0.0065000000 0.0065000000 0.0065000000 0.0065000000 0.0065000000 0.0065000000 0.0065000000 0.0065000000 0.0065000000 0.0065000000 0.0065000000 0.0065000000 0.0065000000 0.0065000000 0.0065000000 0.0065000000 0.0065000000 0.0065000000 0.0065000000 0.0065000000 0.0065000000 0.0065000000 0.0065000000 0.0065000000 0.0065000000 0.0065000000 0.0065000000 0.0065000000 0.0065000000 0.0065000000 0.0065000000 0.0065000000 0.0065000000 0.0065000000 0.0065000000 0.0065000000 0.0065000000 0.0065000000 0.0065000000 0.0065000000 0.0065000000 0.0065000000 0.0065000000 0.0065000000 0.0065000000 0.0065000000 0.0065000000 0.0065000000 0.0065000000 0.0065000000 0.0065000000 0.0065000000 0.0065000000 0.0065000000 0.0065000000 0.0065000000 0.0065000000 0.0065000000 0.0065000000 0.0065000000 0.0065000000 0.0065000000 0.0065000000 0.0065000000 0.0065000000 0.0065000000 0.0065000000 0.0065000000 0.0065000000 0.0065000000 0.0065000000 0.0065000000 0.0065000000 0.0065000000 0.0065000000 0.0065000000 0.0065000000 0.0065000000 0.0065000000 0.0065000000 0.0065000000 0.0065000000 0.0065000000 0.0065000000 0.0065000000 0.0065000000 0.0065000000 0.0065000000 0.0065000000 0.0065000000 0.0065000000 0.0065000000 0.0065000000 0.0065000000 0.0065000000 0.0065000000 0.0065000000 0.0065000000 0.0065000000 0.0065000000 0.0065000000 0.0065000000 0.0065000000 0.0065000000 0.0065000000 0.0065000000 0.0065000000 0.0065000000 0.0065000000 0.0065000000 0.0065000000 0.0065000000 0.0065000000 0.0065000000 0.0065000000 0.0065000000 0.0065000000 0.0065000000 0.0065000000 0.0065000000 0.0065000000 0.0065000000 0.0065000000 0.0065000000 0.0065000000 0.0065000000 0.0065000000 0.0065000000 0.0065000000 0.0065000000 0.0065000000 0.0065000000 0.0065000000 0.0065000000 0.0065000000 0.0065000000 0.0065000000 0.0065000000 0.0065000000 0.0065000000 0.0065000000 0.0065000000 0.0065000000 0.0065000000 0.0065000000 0.0065000000 0.0065000000 0.0065000000 0.0065000000 0.0065000000 0.0065000000 0.0065000000 0.0065000000 0.0065000000 0.0065000000 0.0065000000 0.0065000000 0.0065000000 0.0065000000 0.0065000000 0.0065000000 0.0065000000 0.0065000000 0.0065000000 0.0065000000 0.0065000000 0.0065000000 0.0065000000 0.0065000000 0.0065000000 0.0065000000 0.0065000000 0.0065000000 0.0065000000 0.0065000000 0.0065000000 0.0065000000 0.0065000000 0.0065000000 0.0065000000 0.0065000000 0.0065000000 0.0065000000 0.0065000000 0.0065000000 0.0065000000 0.0065000000 0.0065000000 0.0065000000 0.0065000000 0.0065000000 0.0065000000 0.0065000000 0.0065000000 0.0065000000 0.0065000000 0.0065000000 0.0065000000 0.0065000000 0.0065000000 0.0065000000 0.0065000000 0.0065000000 0.0065000000 0.0065000000 0.0065000000 0.0065000000 0.0065000000 0.0065000000 0.0065000000 0.0065000000 0.0065000000 0.0065000000 0.0065000000 0.0065000000 0.0065000000 0.0065000000 0.0065000000 0.0065000000 0.0065000000 0.0065000000 0.0065000000 0.0065000000 0.0065000000 0.0065000000 0.0065000000 0.0065000000 0.0065000000 0.0065000000 0.0065000000 0.0065000000 0.0065000000 0.0065000000 0.0065000000 0.0065000000 0.0065000000 0.0065000000 0.0065000000 0.0065000000 0.0065000000 0.0065000000 0.0065000000 0.0065000000 0.0065000000 0.0065000000 0.0065000000 0.0065000000 0.0065000000 0.0065000000 0.0065000000 0.0065000000 0.0065000000 0.0065000000 0.0065000000 0.0065000000 0.0065000000 0.0065000000 0.0065000000 0.0065000000 0.0065000000 0.0065000000 0.0065000000 0.0065000000 0.0065000000 0.0065000000 0.0065000000 0.0065000000 0.0065000000 0.0065000000 0.0065000000 0.0065000000 0.0065000000 0.0065000000 0.0065000000 0.0065000000 0.0065000000 0.0065000000 0.0065000000 0.0065000000 0.0065000000 0.0065000000 0.0065000000 0.0065000000 0.0065000000 0.0065000000 0.0065000000 0.0065000000 0.0065000000 0.0065000000 0.0065000000 0.0065000000 0.0065000000 0.0065000000 0.0065000000 0.0065000000 0.0065000000 0.0065000000 0.0065000000 0.0065000000 0.0065000000 0.0065000000 0.0065000000 0.0065000000 0.0065000000 0.0065000000 0.0065000000 0.0065000000 0.0065000000 0.0065000000 0.0065000000 0.0065000000 0.0065000000 0.0065000000 0.0065000000 0.0065000000 0.0065000000 0.0065000000 0.0065000000 0.0065000000 0.0065000000 0.0065000000 0.0065000000 0.0065000000 0.0065000000 0.0065000000 0.0065000000 0.0065000000 0.0065000000 0.0065000000 0.0065000000 0.0065000000 0.0065000000 0.0065000000 0.0065000000 0.0065000000 0.0065000000 0.0065000000 0.0065000000 0.0065000000 0.0065000000 0.0065000000 0.0065000000 0.0065000000 0.0065000000 0.0065000000 0.0065000000 0.0065000000 0.0065000000 0.0065000000 0.0065000000 0.0065000000 0.0065000000 0.0065000000 0.0065000000 0.0065000000 0.0065000000 0.0065000000 0.0065000000 0.0065000000 0.0065000000 0.0065000000 0.0065000000 0.0065000000 0.0065000000 0.0065000000 0.0065000000 0.0065000000 0.0065000000 0.0065000000 0.0065000000 0.0065000000 0.0065000000 0.0065000000 0.0065000000 0.0065000000 0.0065000000 0.0065000000 0.0065000000 0.0065000000 0.0065000000 0.0065000000 0.0065000000 0.0065000000 0.0065000000 0.0065000000 0.0065000000 0.0065000000 0.0065000000 0.0065000000 0.0065000000 0.0065000000 0.0065000000 0.0065000000 0.0065000000 0.0065000000 0.0065000000 0.0065000000 0.0065000000 0.0065000000 0.0065000000 0.0065000000 0.0065000000 0.0065000000 0.0065000000 0.0065000000 0.0065000000 0.0065000000 0.0065000000 0.0065000000 0.0065000000 0.0065000000 0.0065000000 0.0065000000 0.0065000000 0.0065000000 0.0065000000 0.0065000000 0.0065000000 0.0065000000 0.0065000000 0.0065000000 0.0065000000 0.0065000000 0.0065000000 0.0065000000 0.0065000000 0.0065000000 0.0065000000 0.0065000000 0.0065000000 0.0065000000 0.0065000000 0.0065000000 0.0065000000 0.0065000000 0.0065000000 0.0065000000 0.0065000000 0.0065000000 0.0065000000 0.0065000000 0.0065000000 0.0065000000 0.0065000000 0.0065000000 0.0065000000 0.0065000000 0.0065000000 0.0065000000 0.0065000000 0.0065000000 0.0065000000 0.0065000000 0.0065000000 0.0065000000 0.0065000000 0.0065000000 0.0065000000 0.0065000000 0.0065000000 0.0065000000 0.0065000000 0.0065000000 0.0065000000 0.0065000000 0.0065000000 0.0065000000 0.0065000000 0.0065000000 0.0065000000 0.0065000000 0.0065000000 0.0065000000 0.0065000000 0.0065000000 0.0065000000 0.0065000000 0.0065000000 0.0065000000 0.0065000000 0.0065000000 0.0065000000 0.0065000000 0.0065000000 0.0065000000 0.0065000000 0.0065000000 0.0065000000 0.0065000000 0.0065000000 0.0065000000 0.0065000000 0.0065000000 0.0065000000 0.0065000000 0.0065000000 0.0065000000 0.0065000000 0.0065000000 0.0065000000 0.0065000000 0.0065000000 0.0065000000 0.0065000000 0.0065000000 0.0065000000 0.0065000000 0.0065000000 0.0065000000 0.0065000000 0.0065000000 0.0065000000 0.0065000000 0.0065000000 0.0065000000 0.0065000000 0.0065000000 0.0065000000 0.0065000000 0.0065000000 0.0065000000 0.0065000000 0.0065000000 0.0065000000 0.0065000000 0.0065000000 0.0065000000 0.0065000000 0.0065000000 0.0065000000 0.0065000000 0.0065000000 0.0065000000 0.0065000000 0.0065000000 0.0065000000 0.0065000000 0.0065000000 0.0065000000 0.0065000000 0.0065000000 0.0065000000 0.0065000000 0.0065000000 0.0065000000 0.0065000000 0.0065000000 0.0065000000 0.0065000000 0.0065000000 0.0065000000 0.0065000000 0.0065000000 0.0065000000 0.0065000000 0.0065000000 0.0065000000 0.0065000000 0.0065000000 0.0065000000 0.0065000000 0.0065000000 0.0065000000 0.0065000000 0.0065000000 0.0065000000 0.0065000000 0.0065000000 0.0065000000 0.0065000000 0.0065000000 0.0065000000 0.0065000000 0.0065000000 0.0065000000 0.0065000000 0.0065000000 0.0065000000 0.0065000000 0.0065000000 0.0065000000 0.0065000000 0.0065000000 0.0065000000 0.0065000000 0.0065000000 0.0065000000 0.0065000000 0.0065000000 0.0065000000 0.0065000000 0.0065000000 0.0065000000 0.0065000000 0.0065000000 0.0065000000 0.0065000000 0.0065000000 0.0065000000 0.0065000000 0.0065000000 0.0065000000 0.0065000000 0.0065000000 0.0065000000 0.0065000000 0.0065000000 0.0065000000 0.0065000000 0.0065000000 0.0065000000 0.0065000000 0.0065000000 0.0065000000 0.0065000000 0.0065000000 0.0065000000 0.0065000000 0.0065000000 0.0065000000 0.0065000000 0.0065000000 0.0065000000 0.0065000000 0.0065000000 0.0065000000 0.0065000000 0.0065000000 0.0065000000 0.0065000000 0.0065000000 0.0065000000 0.0065000000 0.0065000000 0.0065000000 0.0065000000 0.0065000000 0.0065000000 0.0065000000 0.0065000000 0.0065000000 0.0065000000 0.0065000000 0.0065000000 0.0065000000 0.0065000000 0.0065000000 0.0065000000 0.0065000000 0.0065000000 0.0065000000 0.0065000000 0.0065000000 0.0065000000 0.0065000000 0.0065000000 0.0065000000 0.0065000000 0.0065000000 0.0065000000 0.0065000000 0.0065000000 0.0065000000 0.0065000000 0.0065000000 0.0065000000 0.0065000000 0.0065000000 0.0065000000 0.0065000000 0.0065000000 0.0065000000 0.0065000000 0.0065000000 0.0065000000 0.0065000000 0.0065000000 0.0065000000 0.0065000000 0.0065000000 0.0065000000 0.0065000000 0.0065000000 0.0065000000 0.0065000000 0.0065000000 0.0065000000 0.0065000000 0.0065000000 0.0065000000 0.0065000000 0.0065000000 0.0065000000 0.0065000000 0.0065000000 0.0065000000 0.0065000000 0.0065000000 0.0065000000 0.0065000000 0.0065000000 0.0065000000 0.0065000000 0.0065000000 0.0065000000 0.0065000000 0.0065000000 0.0065000000 0.0065000000 0.0065000000 0.0065000000 0.0065000000 0.0065000000 0.0065000000 0.0065000000 0.0065000000 0.0065000000 0.0065000000 0.0065000000 0.0065000000 0.0065000000 0.0065000000 0.0065000000 0.0065000000 0.0065000000 0.0065000000 0.0065000000 0.0065000000 0.0065000000 0.0065000000 0.0065000000 0.0065000000 0.0065000000 0.0065000000 0.0065000000 0.0065000000 0.0065000000 0.0065000000 0.0065000000 0.0065000000 0.0065000000 0.0065000000 0.0065000000 0.0065000000 0.0065000000 0.0065000000 0.0065000000 0.0065000000 0.0065000000 0.0065000000 0.0065000000 0.0065000000 0.0065000000 0.0065000000 0.0065000000 0.0065000000 0.0065000000 0.0065000000 0.0065000000 0.0065000000 0.0065000000 0.0065000000 0.0065000000 0.0065000000 0.0065000000 0.0065000000 0.0065000000 0.0065000000 0.0065000000 0.0065000000 0.0065000000 0.0065000000 0.0065000000 0.0065000000 0.0065000000 0.0065000000 0.0065000000 0.0065000000 0.0065000000 0.0065000000 0.0065000000 0.0065000000 0.0065000000 0.0065000000 0.0065000000 0.0065000000 0.0065000000 0.0065000000 0.0065000000 0.0065000000 0.0065000000 0.0065000000 0.0065000000 0.0065000000 0.0065000000 0.0065000000 0.0065000000 0.0065000000 0.0065000000 0.0065000000 0.0065000000 0.0065000000 0.0065000000 0.0065000000 0.0065000000 0.0065000000 0.0065000000 0.0065000000 0.0065000000 0.0065000000 0.0065000000 0.0065000000 0.0065000000 0.0065000000 0.0065000000 0.0065000000 0.0065000000 0.0065000000 0.0065000000 0.0065000000 0.0065000000 0.0065000000 0.0065000000 0.0065000000 0.0065000000 0.0065000000 0.0065000000 0.0065000000 0.0065000000 0.0065000000 0.0065000000 0.0065000000 0.0065000000 0.0065000000 0.0065000000 0.0065000000 0.0065000000 0.0065000000 0.0065000000 0.0065000000 0.0065000000 0.0065000000 0.0065000000 0.0065000000 0.0065000000 0.0065000000 0.0065000000 0.0065000000 0.0065000000 0.0065000000 0.0065000000 0.0065000000 0.0065000000 0.0065000000 0.0065000000 0.0065000000 0.0065000000 0.0065000000 0.0065000000 0.0065000000 0.0065000000 0.0065000000 0.0065000000 0.0065000000 0.0065000000 0.0065000000 0.0065000000 0.0065000000 0.0065000000 0.0065000000 0.0065000000 0.0065000000 0.0065000000 0.0065000000 0.0065000000 0.0065000000 0.0065000000 0.0065000000 0.0065000000 0.0065000000 0.0065000000 0.0065000000 0.0065000000 0.0065000000 0.0065000000 0.0065000000 0.0065000000 0.0065000000 0.0065000000 0.0065000000 0.0065000000 0.0065000000 0.0065000000 0.0065000000 0.0065000000 0.0065000000 0.0065000000 0.0065000000 0.0065000000 0.0065000000 0.0065000000 0.0065000000 0.0065000000 0.0065000000 0.0065000000 0.0065000000 0.0065000000 0.0065000000 0.0065000000 0.0065000000 0.0065000000 0.0065000000 0.0065000000 0.0065000000 0.0065000000 0.0065000000 0.0065000000 0.0065000000 0.0065000000 0.0065000000 0.0065000000 0.0065000000 0.0065000000 0.0065000000 0.0065000000 0.0065000000 0.0065000000 0.0065000000 0.0065000000 0.0065000000 0.0065000000 0.0065000000 0.0065000000 0.0065000000 0.0065000000 0.0065000000 0.0065000000 0.0065000000 0.0065000000 0.0065000000 0.0065000000 0.0065000000 0.0065000000 0.0065000000 0.0065000000 0.0065000000 0.0065000000 0.0065000000 0.0065000000 0.0065000000 0.0065000000 0.0065000000 0.0065000000 0.0065000000 0.0065000000 0.0065000000 0.0065000000 0.0065000000 0.0065000000 0.0065000000 0.0065000000 0.0065000000 0.0065000000 0.0065000000 0.0065000000 0.0065000000 0.0065000000 0.0065000000 0.0065000000 0.0065000000 0.0065000000 0.0065000000 0.0065000000 0.0065000000 0.0065000000 0.0065000000 0.0065000000 0.0065000000 0.0065000000 0.0065000000 0.0065000000 0.0065000000 0.0065000000 0.0065000000 0.0065000000 0.0065000000 0.0065000000 0.0065000000 0.0065000000 0.0065000000 0.0065000000 0.0065000000 0.0065000000 0.0065000000 0.0065000000 0.0065000000 0.0065000000 0.0065000000 0.0065000000 0.0065000000 0.0065000000 0.0065000000 0.0065000000 0.0065000000 0.0065000000 0.0065000000 0.0065000000 0.0065000000 0.0065000000 0.0065000000 0.0065000000 0.0065000000 0.0065000000 0.0065000000 0.0065000000 0.0065000000 0.0065000000 0.0065000000 0.0065000000 0.0065000000 0.0065000000 0.0065000000 0.0065000000 0.0065000000 0.0065000000 0.0065000000 0.0065000000 0.0065000000 0.0065000000 0.0065000000 0.0065000000 0.0065000000 0.0065000000 0.0065000000 0.0065000000 0.0065000000 0.0065000000 0.0065000000 0.0065000000 0.0065000000 0.0065000000 0.0065000000 0.0065000000 0.0065000000 0.0065000000 0.0065000000 0.0065000000 0.0065000000 0.0065000000 0.0065000000 0.0065000000 0.0065000000 0.0065000000 0.0065000000 0.0065000000 0.0065000000 0.0065000000 0.0065000000 0.0065000000 0.0065000000 0.0065000000 0.0065000000 0.0065000000 0.0065000000 0.0065000000 0.0065000000 0.0065000000 0.0065000000 0.0065000000 0.0065000000 0.0065000000 0.0065000000 0.0065000000 0.0065000000 0.0065000000 0.0065000000 0.0065000000 0.0065000000 0.0065000000 0.0065000000 0.0065000000 0.0065000000 0.0065000000 0.0065000000 0.0065000000 0.0065000000 0.0065000000 0.0065000000 0.0065000000 0.0065000000 0.0065000000 0.0065000000 0.0065000000 0.0065000000 0.0065000000 0.0065000000 0.0065000000 0.0065000000 0.0065000000 0.0065000000 0.0065000000 0.0065000000 0.0065000000 0.0065000000 0.0065000000 0.0065000000 0.0065000000 0.0065000000 0.0065000000 0.0065000000 0.0065000000 0.0065000000 0.0065000000 0.0065000000 0.0065000000 0.0065000000 0.0065000000 0.0065000000 0.0065000000 0.0065000000 0.0065000000 0.0065000000 0.0065000000 0.0065000000 0.0065000000 0.0065000000 0.0065000000 0.0065000000 0.0065000000 0.0065000000 0.0065000000 0.0065000000 0.0065000000 0.006500000