<?xml version="1.0"?>
<VTKFile type="UnstructuredGrid" version="0.1" byte_order="LittleEndian">
  <UnstructuredGrid>
    <FieldData>
      <DataArray type="Float32" Name="TIME"  NumberOfTuples="1" format="ascii"> 4.0971780359 </DataArray>
      <DataArray type="Int32"   Name="STEP"  NumberOfTuples="1" format="ascii"> 54940 </DataArray>
    </FieldData>
    <Piece NumberOfPoints="18081" NumberOfCells="18081">
      <Points>
        <DataArray type="Float32" NumberOfComponents="3" format="ascii">
 0.1188577304 0.0821205921 0.0141254130 0.0394976790 0.0985763000 0.0058595169 0.1001388526 0.0357895375 0.0102871906 0.0197940107 0.0152140308 0.0109240487 0.0559934543 0.0226659255 0.0107446461 0.0012951520 0.0211555617 0.0155288192 0.4842140392 0.0160066413 0.0154163965 0.4206519997 0.0415175621 0.0084335337 0.4992394791 0.0081985591 0.0074849011 0.4293817405 0.0310660693 0.0135749964 0.4470110623 0.0141948057 0.0215047449 0.4990437630 0.0475856141 0.0153428504 0.4880876013 0.0092967810 0.0277126111 0.3708858002 0.0209322753 0.0229000542 0.4658706184 0.0562718160 0.0267811101 0.4201252602 0.0162675840 0.0310793856 0.4985026506 0.0330426021 0.0230608779 0.3100666567 0.0836060095 0.0294726280 0.3786598549 0.0379735703 0.0312332537 0.1914026700 0.0014679269 0.0169862703 0.4810680069 0.0040425942 0.0357311236 0.1142261899 0.1013402459 0.0008344500 0.0394880952 0.0926478195 0.0189867072 0.0697015568 0.0391253616 0.0091798205 0.0571149333 0.0479248105 0.0010944400 0.0093229811 0.0534503085 0.0057737430 0.4428369276 0.0019458542 0.0180382963 0.4929143208 0.0067090317 0.0147043176 0.4550443400 0.0264237572 0.0064174031 0.4879334646 0.0230342916 0.0328576460 0.4903174719 0.0230880146 0.0033854099 0.3944768195 0.0705132772 0.0176720662 0.4920658394 0.0308687836 0.0255956448 0.3933866156 0.0650390825 0.0196985634 0.4922304329 0.0352219346 0.0143177216 0.3537377028 0.0286833932 0.0216865689 0.4693118993 0.0221724741 0.0072727112 0.3735589356 0.0352086600 0.0307892650 0.0807262821 0.0613395830 0.0201435776 0.0088533475 0.0639952715 0.0217456999 0.3771558280 0.0231108303 0.0146319001 0.2693440850 0.0962980797 0.0288015430 0.0849764014 0.0080359964 0.0076631738 0.0025121635 0.0981582914 0.0005245226 0.0909222576 0.0627256558 0.0009169990 0.2273822840 0.0686952948 0.0173749356 0.4121667275 0.0089616155 0.0007484495 0.3836681029 0.0396851433 0.0141720621 0.4916180859 0.0278747515 0.0005682828 0.4993975748 0.0763777231 0.0079309904 0.4932326196 0.0845478108 0.0253038566 0.4893199789 0.0128465598 0.0004957077 0.3126290560 0.0588768922 0.0296617368 0.3897338967 0.0738215042 0.0056548688 0.4567602028 0.0422928465 0.0274360507 0.4653475726 0.0511001903 0.0208028322 0.4327821778 0.0326611645 0.0003123780 0.4487840141 0.0628413522 0.0009534018 0.4188506880 0.0213610632 0.0232144736 0.0642485484 0.0812013574 0.0106890912 0.3907891858 0.0603531296 0.0291912818 0.4889544788 0.0706892267 0.0192274751 0.3855872459 0.0481282596 0.0157153914 0.0791619892 0.0523708656 0.0009084669 0.0319881090 0.0050874412 0.0081937425 0.1140081490 0.0584179188 0.0090060759 0.0550116247 0.0355319644 0.0063909326 0.4168023415 0.0185241417 0.0062549794 0.4643888536 0.0182477580 0.0017244900 0.4741608535 0.0125238547 0.0003566674 0.3413508883 0.0251661235 0.0252704095 0.3324433988 0.0017204104 0.0247892403 0.4882144253 0.0640881728 0.0081547577 0.3865920919 0.0795683678 0.0224994735 0.3402674252 0.0666498993 0.0053347975 0.4482890318 0.0202811705 0.0131536147 0.4202382227 0.0076967995 0.0065928077 0.2825114514 0.0404849010 0.0082918177 0.3437530727 0.0354413341 0.0277185752 0.3149238072 0.0180545623 0.0307484271 0.0809318867 0.0810529695 0.0135147216 0.0995866616 0.0992491718 0.0084925663 0.0552466057 0.0757866063 0.0194463220 0.4630367742 0.0939883685 0.0102403021 0.1643968680 0.0217937573 0.0043506434 0.1774890764 0.0119473550 0.0006269988 0.0540125230 0.0669194960 0.0076694808 0.3585612631 0.0013070523 0.0110638062 0.3999178627 0.0280830150 0.0010241429 0.4324675371 0.0013590590 0.0184956182 0.4672627372 0.0479087455 0.0069372746 0.4444958071 0.0147576548 0.0087685388 0.4330977884 0.0094850219 0.0047547623 0.3984874411 0.0301961066 0.0062837091 0.4745645190 0.0715185608 0.0046187664 0.3458159159 0.0764991479 0.0177468456 0.3219020298 0.0477597048 0.0172702789 0.4149429998 0.0726027315 0.0006904250 0.2679400189 0.0211744334 0.0161538093 0.3369569575 0.0592541833 0.0315037149 0.4500443209 0.0129417347 0.0322919027 0.3479640033 0.0390262985 0.0332720813 0.2839812342 0.0602227594 0.0226846912 0.3990851998 0.0095348851 0.0151954597 0.3041523928 0.0559452151 0.0285354869 0.1494915001 0.0128263163 0.0137650615 0.0644232955 0.0389578884 0.0050232782 0.0853868447 0.0618601798 0.0008103220 0.0065384331 0.0880433479 0.0069422470 0.4575445450 0.0078575714 0.0006723058 0.4872585726 0.0427052225 0.0009762424 0.3424701316 0.0505153371 0.0055190515 0.3571135669 0.0197746806 0.0199826906 0.2390285020 0.0174067393 0.0215639605 0.4110938001 0.0585841758 0.0035593018 0.3929146519 0.0471350454 0.0058087865 0.3516862936 0.0598947461 0.0060010883 0.3451146967 0.0672086424 0.0147500440 0.2957003303 0.0790212286 0.0289349118 0.3524478580 0.0505778690 0.0204144169 0.3323774537 0.0660306546 0.0197048154 0.3089780865 0.0017516373 0.0209196827 0.1432876620 0.0510643815 0.0149651055 0.3731518219 0.0038451537 0.0005391866 0.3670958104 0.0127893872 0.0303906436 0.4659345855 0.0666627156 0.0192839087 0.1494857040 0.0221079960 0.0005351838 0.1798337275 0.0012207402 0.0108960065 0.0603405268 0.0528664124 0.0006361378 0.3894131916 0.0268746737 0.0010077733 0.4099745469 0.0249638373 0.0007724779 0.4540164228 0.0048830393 0.0014589927 0.3348921035 0.0468463138 0.0005913406 0.4610219480 0.0483737214 0.0010294580 0.3594659322 0.0292269000 0.0071957186 0.3674886905 0.0377302216 0.0055005229 0.3644073889 0.0583111141 0.0113008563 0.4065208773 0.0605533893 0.0056702652 0.2749047790 0.0440632354 0.0205602419 0.4372977584 0.0758507644 0.0058988062 0.3114540956 0.0239203177 0.0051747496 0.4168702864 0.0613754993 0.0213419765 0.0243169979 0.0938605517 0.0110349083 0.1175482913 0.0159244763 0.0099565086 0.0574281718 0.0531171288 0.0186020122 0.0666566720 0.1022686945 0.0137321201 0.2823212647 0.1208020550 0.0285868069 0.1342571273 0.0051024812 0.0090448128 0.0411181698 0.0167902823 0.0007445097 0.0810013750 0.0114580845 0.0004843926 0.4024834789 0.0127296171 0.0006592172 0.3781595337 0.0287529790 0.0104495999 0.4108605104 0.0020138099 0.0159850651 0.4070248032 0.0536553633 0.0007488565 0.1442557257 0.0150187200 0.0267137069 0.4261037477 0.0513049013 0.0007451260 0.3625499723 0.0470357835 0.0003844773 0.4400398541 0.0901876729 0.0004373170 0.4135308418 0.0505702072 0.0168614062 0.2743138057 0.0577089045 0.0084752758 0.3547072707 0.0358821362 0.0221249870 0.2972114168 0.0346108620 0.0130154515 0.2598535697 0.0172282991 0.0285193488 0.2356041600 0.0609290902 0.0281447641 0.0822440096 0.0825364015 0.0188827688 0.3147189195 0.0048451966 0.0052038532 0.2256047519 0.0368824470 0.0219226216 0.0899210419 0.0457267095 0.0253684821 0.0289513709 0.0202692831 0.0057501672 0.2085645213 0.0300458983 0.0046141262 0.0967593870 0.0083563545 0.0006679027 0.3944917506 0.0011427686 0.0201073897 0.4533323991 0.0016140222 0.0189396176 0.4535672468 0.0009879638 0.0083287693 0.4054550749 0.0077046109 0.0112531623 0.3306698671 0.0226700283 0.0005615775 0.0110701093 0.0301906583 0.0074285876 0.0297989317 0.0814435735 0.0011910949 0.3439712500 0.0650233800 0.0086280045 0.4332065843 0.0763735893 0.0088869029 0.3686953517 0.0658895435 0.0004552492 0.3711112135 0.0711894650 0.0083721853 0.3817561297 0.0705274383 0.0239014904 0.4390666043 0.0992817996 0.0220302520 0.4374331448 0.0822761582 0.0315952158 0.0280715438 0.0787351030 0.0060960361 0.0291966917 0.0504502620 0.0191666029 0.4456782197 0.0377389402 0.0064542656 0.0755827542 0.0476172000 0.0147966032 0.1809321753 0.0200693228 0.0110330095 0.1751521846 0.0432779541 0.0099303907 0.1743493454 0.0362582813 0.0007640379 0.4064036543 0.0008557144 0.0066360522 0.4094191276 0.0143829643 0.0061723340 0.4217885353 0.0138331906 0.0010736273 0.4065368655 0.0368517636 0.0029784345 0.3915506800 0.0515477673 0.0012538609 0.4039950929 0.0317172479 0.0059931195 0.3337202393 0.0097913540 0.0012592469 0.4053630673 0.0726530986 0.0007112876 0.4229505130 0.0375966734 0.0187315933 0.3445469903 0.0444331653 0.0175816190 0.4455906419 0.0292836393 0.0009947926 0.2792652133 0.0853941822 0.0224406508 0.2544796700 0.0005659288 0.0005809102 0.2884279500 0.0705147971 0.0271534182 0.1782215130 0.0901564974 0.0258388390 0.3806553575 0.0612938011 0.0150707859 0.0097455316 0.0442494077 0.0247802115 0.4349366790 0.0511418111 0.0205855401 0.1563771533 0.0260122252 0.0007659181 0.1008451888 0.0219359267 0.0004962067 0.0536150777 0.0431272863 0.0006872290 0.3449043543 0.0349147348 0.0079086947 0.3067177687 0.0188604995 0.0096529872 0.4162561348 0.0089084163 0.0106664759 0.3237627706 0.0464162585 0.0010561242 0.4439483739 0.0916830060 0.0028769905 0.0818748863 0.0452476755 0.0143465025 0.3983387795 0.0200951900 0.0056705990 0.4664854012 0.0899733395 0.0005624608 0.4918519633 0.0826222166 0.0020047712 0.2792575923 0.0627096394 0.0005620561 0.4781800897 0.0727626448 0.0165593496 0.3203347982 0.0583204997 0.0172734120 0.2329697098 0.0588626843 0.0117471904 0.2337516429 0.0656958706 0.0200592669 0.0378936840 0.0342335022 0.0035720243 0.2379142945 0.0553125266 0.0040012727 0.3319906693 0.1088798437 0.0249911662 0.4442513673 0.0588354587 0.0168036590 0.1729518311 0.0288528799 0.0081805235 0.1835222393 0.0455886343 0.0078720923 0.1831916603 0.0123946515 0.0010715409 0.3668002618 0.0087287629 0.0091596510 0.0578091814 0.0624228761 0.0099364385 0.3215566890 0.0388087707 0.0061507539 0.3575602127 0.0472174757 0.0013634395 0.3202321135 0.0229195768 0.0010140478 0.4500831653 0.0691143060 0.0052602316 0.3045751085 0.0441686904 0.0048315297 0.4407169283 0.0433826230 0.0155271519 0.4430015898 0.0739667665 0.0196018139 0.4077307691 0.0399327
[...]
      <PointData Scalars="smoothLength">
        <DataArray type="Float32" Name="smoothLength" format="ascii">
 0.0065000000 0.0065000000 0.0065000000 0.0065000000 0.0065000000 0.0065000000 0.0065000000 0.0065000000 0.0065000000 0.0065000000 0.0065000000 0.0065000000 0.0065000000 0.0065000000 0.0065000000 0.0065000000 0.0065000000 0.0065000000 0.0065000000 0.0065000000 0.0065000000 0.0065000000 0.0065000000 0.0065000000 0.0065000000 0.0065000000 0.0065000000 0.0065000000 0.0065000000 0.0065000000 0.0065000000 0.0065000000 0.0065000000 0.0065000000 0.0065000000 0.0065000000 0.0065000000 0.0065000000 0.0065000000 0.0065000000 0.0065000000 0.0065000000 0.0065000000 0.0065000000 0.0065000000 0.0065000000 0.0065000000 0.0065000000 0.0065000000 0.0065000000 0.0065000000 0.0065000000 0.0065000000 0.0065000000 0.0065000000 0.0065000000 0.0065000000 0.0065000000 0.0065000000 0.0065000000 0.0065000000 0.0065000000 0.0065000000 0.0065000000 0.0065000000 0.0065000000 0.0065000000 0.0065000000 0.0065000000 0.0065000000 0.0065000000 0.0065000000 0.0065000000 0.0065000000 0.0065000000 0.0065000000 0.0065000000 0.0065000000 0.0065000000 0.0065000000 0.0065000000 0.0065000000 0.0065000000 0.0065000000 0.0065000000 0.0065000000 0.0065000000 0.0065000000 0.0065000000 0.0065000000 0.0065000000 0.0065000000 0.0065000000 0.0065000000 0.0065000000 0.0065000000 0.0065000000 0.0065000000 0.0065000000 0.0065000000 0.0065000000 0.0065000000 0.0065000000 0.0065000000 0.0065000000 0.0065000000 0.0065000000 0.0065000000 0.0065000000 0.0065000000 0.0065000000 0.0065000000 0.0065000000 0.0065000000 0.0065000000 0.0065000000 0.0065000000 0.0065000000 0.0065000000 0.0065000000 0.0065000000 0.0065000000 0.0065000000 0.0065000000 0.0065000000 0.0065000000 0.0065000000 0.0065000000 0.0065000000 0.0065000000 0.0065000000 0.0065000000 0.0065000000 0.0065000000 0.0065000000 0.0065000000 0.0065000000 0.0065000000 0.0065000000 0.0065000000 0.0065000000 0.0065000000 0.0065000000 0.0065000000 0.0065000000 0.0065000000 0.0065000000 0.0065000000 0.0065000000 0.0065000000 0.0065000000 0.0065000000 0.0065000000 0.0065000000 0.0065000000 0.0065000000 0.0065000000 0.0065000000 0.0065000000 0.0065000000 0.0065000000 0.0065000000 0.0065000000 0.0065000000 0.0065000000 0.0065000000 0.0065000000 0.0065000000 0.0065000000 0.0065000000 0.0065000000 0.0065000000 0.0065000000 0.0065000000 0.0065000000 0.0065000000 0.0065000000 0.0065000000 0.0065000000 0.0065000000 0.0065000000 0.0065000000 0.0065000000 0.0065000000 0.0065000000 0.0065000000 0.0065000000 0.0065000000 0.0065000000 0.0065000000 0.0065000000 0.0065000000 0.0065000000 0.0065000000 0.0065000000 0.0065000000 0.0065000000 0.0065000000 0.0065000000 0.0065000000 0.0065000000 0.0065000000 0.0065000000 0.0065000000 0.0065000000 0.0065000000 0.0065000000 0.0065000000 0.0065000000 0.0065000000 0.0065000000 0.0065000000 0.0065000000 0.0065000000 0.0065000000 0.0065000000 0.0065000000 0.0065000000 0.0065000000 0.0065000000 0.0065000000 0.0065000000 0.0065000000 0.0065000000 0.0065000000 0.0065000000 0.0065000000 0.0065000000 0.0065000000 0.0065000000 0.0065000000 0.0065000000 0.0065000000 0.0065000000 0.0065000000 0.0065000000 0.0065000000 0.0065000000 0.0065000000 0.0065000000 0.0065000000 0.0065000000 0.0065000000 0.0065000000 0.0065000000 0.0065000000 0.0065000000 0.0065000000 0.0065000000 0.0065000000 0.0065000000 0.0065000000 0.0065000000 0.0065000000 0.0065000000 0.0065000000 0.0065000000 0.0065000000 0.0065000000 0.0065000000 0.0065000000 0.0065000000 0.0065000000 0.0065000000 0.0065000000 0.0065000000 0.0065000000 0.0065000000 0.0065000000 0.0065000000 0.0065000000 0.0065000000 0.0065000000 0.0065000000 0.0065000000 0.0065000000 0.0065000000 0.0065000000 0.0065000000 0.0065000000 0.0065000000 0.0065000000 0.0065000000 0.0065000000 0.0065000000 0.0065000000 0.0065000000 0.0065000000 0.0065000000 0.0065000000 0.0065000000 0.0065000000 0.0065000000 0.0065000000 0.0065000000 0.0065000000 0.0065000000 0.0065000000 0.0065000000 0.0065000000 0.0065000000 0.0065000000 0.0065000000 0.0065000000 0.0065000000 0.0065000000 0.0065000000 0.0065000000 0.0065000000 0.0065000000 0.0065000000 0.0065000000 0.0065000000 0.0065000000 0.0065000000 0.0065000000 0.0065000000 0.0065000000 0.0065000000 0.0065000000 0.0065000000 0.0065000000 0.0065000000 0.0065000000 0.0065000000 0.0065000000 0.0065000000 0.0065000000 0.0065000000 0.0065000000 0.0065000000 0.0065000000 0.0065000000 0.0065000000 0.0065000000 0.0065000000 0.0065000000 0.0065000000 0.0065000000 0.0065000000 0.0065000000 0.0065000000 0.0065000000 0.0065000000 0.0065000000 0.0065000000 0.0065000000 0.0065000000 0.0065000000 0.0065000000 0.0065000000 0.0065000000 0.0065000000 0.0065000000 0.0065000000 0.0065000000 0.0065000000 0.0065000000 0.0065000000 0.0065000000 0.0065000000 0.0065000000 0.0065000000 0.0065000000 0.0065000000 0.0065000000 0.0065000000 0.0065000000 0.0065000000 0.0065000000 0.0065000000 0.0065000000 0.0065000000 0.0065000000 0.0065000000 0.0065000000 0.0065000000 0.0065000000 0.0065000000 0.0065000000 0.0065000000 0.0065000000 0.0065000000 0.0065000000 0.0065000000 0.0065000000 0.0065000000 0.0065000000 0.0065000000 0.0065000000 0.0065000000 0.0065000000 0.0065000000 0.0065000000 0.0065000000 0.0065000000 0.0065000000 0.0065000000 0.0065000000 0.0065000000 0.0065000000 0.0065000000 0.0065000000 0.0065000000 0.0065000000 0.0065000000 0.0065000000 0.0065000000 0.0065000000 0.0065000000 0.0065000000 0.0065000000 0.0065000000 0.0065000000 0.0065000000 0.0065000000 0.0065000000 0.0065000000 0.0065000000 0.0065000000 0.0065000000 0.0065000000 0.0065000000 0.0065000000 0.0065000000 0.0065000000 0.0065000000 0.0065000000 0.0065000000 0.0065000000 0.0065000000 0.0065000000 0.0065000000 0.0065000000 0.0065000000 0.0065000000 0.0065000000 0.0065000000 0.0065000000 0.0065000000 0.0065000000 0.0065000000 0.0065000000 0.0065000000 0.0065000000 0.0065000000 0.0065000000 0.0065000000 0.0065000000 0.0065000000 0.0065000000 0.0065000000 0.0065000000 0.0065000000 0.0065000000 0.0065000000 0.0065000000 0.0065000000 0.0065000000 0.0065000000 0.0065000000 0.0065000000 0.0065000000 0.0065000000 0.0065000000 0.0065000000 0.0065000000 0.0065000000 0.0065000000 0.0065000000 0.0065000000 0.0065000000 0.0065000000 0.0065000000 0.0065000000 0.0065000000 0.0065000000 0.0065000000 0.0065000000 0.0065000000 0.0065000000 0.0065000000 0.0065000000 0.0065000000 0.0065000000 0.0065000000 0.0065000000 0.0065000000 0.0065000000 0.0065000000 0.0065000000 0.0065000000 0.0065000000 0.0065000000 0.0065000000 0.0065000000 0.0065000000 0.0065000000 0.0065000000 0.0065000000 0.0065000000 0.0065000000 0.0065000000 0.0065000000 0.0065000000 0.0065000000 0.0065000000 0.0065000000 0.0065000000 0.0065000000 0.0065000000 0.0065000000 0.0065000000 0.0065000000 0.0065000000 0.0065000000 0.0065000000 0.0065000000 0.0065000000 0.0065000000 0.0065000000 0.0065000000 0.0065000000 0.0065000000 0.0065000000 0.0065000000 0.0065000000 0.0065000000 0.0065000000 0.0065000000 0.0065000000 0.0065000000 0.0065000000 0.0065000000 0.0065000000 0.0065000000 0.0065000000 0.0065000000 0.0065000000 0.0065000000 0.0065000000 0.0065000000 0.0065000000 0.0065000000 0.0065000000 0.0065000000 0.0065000000 0.0065000000 0.0065000000 0.0065000000 0.0065000000 0.0065000000 0.0065000000 0.0065000000 0.0065000000 0.0065000000 0.0065000000 0.0065000000 0.0065000000 0.0065000000 0.0065000000 0.0065000000 0.0065000000 0.0065000000 0.0065000000 0.0065000000 0.0065000000 0.0065000000 0.0065000000 0.0065000000 0.0065000000 0.0065000000 0.0065000000 0.0065000000 0.0065000000 0.0065000000 0.0065000000 0.0065000000 0.0065000000 0.0065000000 0.0065000000 0.0065000000 0.0065000000 0.0065000000 0.0065000000 0.0065000000 0.0065000000 0.0065000000 0.0065000000 0.0065000000 0.0065000000 0.0065000000 0.0065000000 0.0065000000 0.0065000000 0.0065000000 0.0065000000 0.0065000000 0.0065000000 0.0065000000 0.0065000000 0.0065000000 0.0065000000 0.0065000000 0.0065000000 0.0065000000 0.0065000000 0.0065000000 0.0065000000 0.0065000000 0.0065000000 0.0065000000 0.0065000000 0.0065000000 0.0065000000 0.0065000000 0.0065000000 0.0065000000 0.0065000000 0.0065000000 0.0065000000 0.0065000000 0.0065000000 0.0065000000 0.0065000000 0.0065000000 0.0065000000 0.0065000000 0.0065000000 0.0065000000 0.0065000000 0.0065000000 0.0065000000 0.0065000000 0.0065000000 0.0065000000 0.0065000000 0.0065000000 0.0065000000 0.0065000000 0.0065000000 0.0065000000 0.0065000000 0.0065000000 0.0065000000 0.0065000000 0.0065000000 0.0065000000 0.0065000000 0.0065000000 0.0065000000 0.0065000000 0.0065000000 0.0065000000 0.0065000000 0.0065000000 0.0065000000 0.0065000000 0.0065000000 0.0065000000 0.0065000000 0.0065000000 0.0065000000 0.0065000000 0.0065000000 0.0065000000 0.0065000000 0.0065000000 0.0065000000 0.0065000000 0.0065000000 0.0065000000 0.0065000000 0.0065000000 0.0065000000 0.0065000000 0.0065000000 0.0065000000 0.0065000000 0.0065000000 0.0065000000 0.0065000000 0.0065000000 0.0065000000 0.0065000000 0.0065000000 0.0065000000 0.0065000000 0.0065000000 0.0065000000 0.0065000000 0.0065000000 0.0065000000 0.0065000000 0.0065000000 0.0065000000 0.0065000000 0.0065000000 0.0065000000 0.0065000000 0.0065000000 0.0065000000 0.0065000000 0.0065000000 0.0065000000 0.0065000000 0.0065000000 0.0065000000 0.0065000000 0.0065000000 0.0065000000 0.0065000000 0.0065000000 0.0065000000 0.0065000000 0.0065000000 0.0065000000 0.0065000000 0.0065000000 0.0065000000 0.0065000000 0.0065000000 0.0065000000 0.0065000000 0.0065000000 0.0065000000 0.0065000000 0.0065000000 0.0065000000 0.0065000000 0.0065000000 0.0065000000 0.0065000000 0.0065000000 0.0065000000 0.0065000000 0.0065000000 0.0065000000 0.0065000000 0.0065000000 0.0065000000 0.0065000000 0.0065000000 0.0065000000 0.0065000000 0.0065000000 0.0065000000 0.0065000000 0.0065000000 0.0065000000 0.0065000000 0.0065000000 0.0065000000 0.0065000000 0.0065000000 0.0065000000 0.0065000000 0.0065000000 0.0065000000 0.0065000000 0.0065000000 0.0065000000 0.0065000000 0.0065000000 0.0065000000 0.0065000000 0.0065000000 0.0065000000 0.0065000000 0.0065000000 0.0065000000 0.0065000000 0.0065000000 0.0065000000 0.0065000000 0.0065000000 0.0065000000 0.0065000000 0.0065000000 0.0065000000 0.0065000000 0.0065000000 0.0065000000 0.0065000000 0.0065000000 0.0065000000 0.0065000000 0.0065000000 0.0065000000 0.0065000000 0.0065000000 0.0065000000 0.0065000000 0.0065000000 0.0065000000 0.0065000000 0.0065000000 0.0065000000 0.0065000000 0.0065000000 0.0065000000 0.0065000000 0.0065000000 0.0065000000 0.0065000000 0.0065000000 0.0065000000 0.0065000000 0.0065000000 0.0065000000 0.0065000000 0.0065000000 0.0065000000 0.0065000000 0.0065000000 0.0065000000 0.0065000000 0.0065000000 0.0065000000 0.0065000000 0.0065000000 0.0065000000 0.0065000000 0.0065000000 0.0065000000 0.0065000000 0.0065000000 0.0065000000 0.0065000000 0.0065000000 0.0065000000 0.0065000000 0.0065000000 0.0065000000 0.0065000000 0.0065000000 0.0065000000 0.0065000000 0.0065000000 0.0065000000 0.0065000000 0.0065000000 0.0065000000 0.0065000000 0.0065000000 0.0065000000 0.0065000000 0.0065000000 0.0065000000 0.0065000000 0.0065000000 0.0065000000 0.0065000000 0.0065000000 0.0065000000 0.0065000000 0.0065000000 0.0065000000 0.0065000000 0.0065000000 0.0065000000 0.0065000000 0.0065000000 0.0065000000 0.0065000000 0.0065000000 0.0065000000 0.0065000000 0.0065000000 0.0065000000 0.0065000000 0.0065000000 0.0065000000 0.0065000000 0.0065000000 0.0065000000 0.0065000000 0.0065000000 0.0065000000 0.0065000000 0.0065000000 0.0065000000 0.0065000000 0.0065000000 0.0065000000 0.0065000000 0.0065000000 0.0065000000 0.0065000000 0.0065000000 0.0065000000 0.0065000000 0.0065000000 0.0065000000 0.0065000000 0.0065000000 0.0065000000 0.0065000000 0.0065000000 0.0065000000 0.0065000000 0.0065000000 0.0065000000 0.0065000000 0.0065000000 0.0065000000 0.0065000000 0.0065000000 0.0065000000 0.0065000000 0.0065000000 0.0065000000 0.0065000000 0.0065000000 0.0065000000 0.0065000000 0.0065000000 0.0065000000 0.0065000000 0.0065000000 0.0065000000 0.0065000000 0.0065000000 0.0065000000 0.0065000000 0.0065000000 0.0065000000 0.0065000000 0.0065000000 0.0065000000 0.0065000000 0.0065000000 0.0065000000 0.0065000000 0.0065000000 0.0065000000 0.0065000000 0.0065000000 0.0065000000 0.0065000000 0.0065000000 0.0065000000 0.0065000000 0.0065000000 0.0065000000 0.0065000000 0.0065000000 0.0065000000 0.0065000000 0.0065000000 0.0065000000 0.0065000000 0.0065000000 0.0065000000 0.0065000000 0.0065000000 0.0065000000 0.0065000000 0.0065000000 0.0065000000 0.0065000000 0.0065000000 0.0065000000 0.0065000000 0.0065000000 0.0065000000 0.0065000000 0.0065000000 0.0065000000 0.0065000000 0.0065000000 0.0065000000 0.0065000000 0.0065000000 0.0065000000 0.0065000000 0.0065000000 0.0065000000 0.0065000000 0.0065000000 0.0065000000 0.0065000000 0.0065000000 0.0065000000 0.0065000000 0.0065000000 0.0065000000 0.0065000000 0.0065000000 0.0065000000 0.0065000000 0.0065000000 0.0065000000 0.0065000000 0.0065000000 0.0065000000 0.0065000000 0.0065000000 0.0065000000 0.0065000000 0.0065000000 0.0065000000 0.0065000000 0.0065000000 0.0065000000 0.0065000000 0.0065000000 0.0065000000 0.0065000000 0.0065000000 0.0065000000 0.0065000000 0.0065000000 0.0065000000 0.0065000000 0.0065000000 0.0065000000 0.0065000000 0.0065000000 0.0065000000 0.0065000000 0.0065000000 0.0065000000 0.0065000000 0.0065000000 0.0065000000 0.0065000000 0.0065000000 0.0065000000 0.0065000000 0.0065000000 0.0065000000 0.0065000000 0.0065000000 0.0065000000 0.0065000000 0.0065000000 0.0065000000 0.0065000000 0.0065000000 0.0065000000 0.0065000000 0.0065000000 0.0065000000 0.0065000000 0.0065000000 0.0065000000 0.0065000000 0.0065000000 0.0065000000 0.0065000000 0.0065000000 0.0065000000 0.0065000000 0.0065000000 0.0065000000 0.0065000000 0.0065000000 0.0065000000 0.0065000000 0.0065000000 0.0065000000 0.0065000000 0.0065000000 0.0065000000 0.0065000000 0.0065000000 0.0065000000 0.0065000000 0.0065000000 0.0065000000 0.0065000000 0.0065000000 0.0065000000 0.0065000000 0.0065000000 0.0065000000 0.0065000000 0.0065000000 0.0065000000 0.0065000000 0.0065000000 0.0065000000 0.0065000000 0.0065000000 0.0065000000 0.0065000000 0.0065000000 0.0065000000 0.0065000000 0.0065000000 0.0065000000 0.0065000000 0.0065000000 0.0065000000 0.0065000000 0.0065000000 0.0065000000 0.0065000000 0.0065000000 0.0065000000 0.0065000000 0.0065000000 0.0065000000 0.0065000000 0.0065000000 0.0065000000 0.0065000000 0.0065000000 0.0065000000 0.0065000000 0.0065000000 0.0065000000 0.0065000000 0.0065000000 0.0065000000 0.0065000000 0.0065000000 0.0065000000 0.0065000000 0.0065000000 0.0065000000 0.0065000000 0.0065000000 0.0065000000 0.0065000000 0.0065000000 0.0065000000 0.0065000000 0.0065000000 0.0065000000 0.0065000000 0.0065000000 0.0065000000 0.0065000000 0.0065000000 0.0065000000 0.0065000000 0.0065000000 0.0065000000 0.0065000000 0.0065000000 0.0065000000 0.0065000000 0.0065000000 0.0065000000 0.0065000000 0.0065000000 0.0065000000 0.0065000000 0.0065000000 0.0065000000 0.0065000000 0.0065000000 0.0065000000 0.0065000000 0.0065000000 0.0065000000 0.0065000000 0.0065000000 0.0065000000 0.0065000000 0.0065000000 0.0065000000 0.0065000000 0.0065000000 0.0065000000 0.0065000000 0.0065000000 0.0065000000 0.0065000000 0.0065000000 0.0065000000 0.0065000000 0.0065000000 0.0065000000 0.0065000000 0.0065000000 0.0065000000 0.0065000000 0.0065000000 0.0065000000 0.0065000000 0.0065000000 0.0065000000 0.0065000000 0.0065000000 0.0065000000 0.0065000000 0.0065000000 0.0065000000 0.0065000000 0.0065000000 0.0065000000 0.0065000000 0.0065000000 0.0065000000 0.0065000000 0.0065000000 0.0065000000 0.0065000000 0.0065000000 0.0065000000 0.0065000000 0.0065000000 0.0065000000 0.0065000000 0.0065000000 0.0065000000 0.0065000000 0.0065000000 0.0065000000 0.0065000000 0.0065000000 0.0065000000 0.0065000000 0.0065000000 0.0065000000 0.0065000000 0.0065000000 0.0065000000 0.0065000000 0.0065000000 0.0065000000 0.0065000000 0.0065000000 0.0065000000 0.0065000000 0.0065000000 0.0065000000 0.0065000000 0.0065000000 0.0065000000 0.0065000000 0.0065000000 0.0065000000 0.0065000000 0.0065000000 0.0065000000 0.0065000000 0.0065000000 0.0065000000 0.0065000000 0.0065000000 0.0065000000 0.0065000000 0.0065000000 0.0065000000 0.0065000000 0.0065000000 0.0065000000 0.0065000000 0.0065000000 0.0065000000 0.0065000000 0.0065000000 0.0065000000 0.0065000000 0.0065000000 0.0065000000 0.0065000000 0.0065000000 0.0065000000 0.0065000000 0.0065000000 0.0065000000 0.0065000000 0.0065000000 0.0065000000 0.0065000000 0.0065000000 0.0065000000 0.0065000000 0.0065000000 0.0065000000 0.0065000000 0.0065000000 0.0065000000 0.0065000000 0.0065000000 0.0065000000 0.0065000000 0.0065000000 0.0065000000 0.0065000000 0.0065000000 0.0065000000 0.0065000000 0.0065000000 0.0065000000 0.0065000000 0.0065000000 0.0065000000 0.0065000000 0.0065000000 0.0065000000 0.0065000000 0.0065000000 0.0065000000 0.0065000000 0.0065000000 0.0065000000 0.0065000000 0.0065000000 0.0065000000 0.0065000000 0.0065000000 0.0065000000 0.0065000000 0.0065000000 0.0065000000 0.0065000000 0.0065000000 0.0065000000 0.0065000000 0.0065000000 0.0065000000 0.0065000000 0.0065000000 0.0065000000 0.0065000000 0.0065000000 0.0065000000 0.0065000000 0.0065000000 0.0065000000 0.0065000000 0.0065000000 0.0065000000 0.0065000000 0.0065000000 0.0065000000 0.0065000000 0.0065000000 0.0065000000 0.0065000000 0.0065000000 0.0065000000 0.0065000000 0.0065000000 0.0065000000 0.0065000000 0.0065000000 0.0065000000 0.0065000000 0.0065000000 0.0065000000 0.0065000000 0.0065000000 0.0065000000 0.0065000000 0.0065000000 0.0065000000 0.0065000000 0.0065000000 0.0065000000 0.0065000000 0.0065000000 0.0065000000 0.0065000000 0.0065000000 0.0065000000 0.0065000000 0.0065000000 0.0065000000 0.0065000000 0.0065000000 0.0065000000 0.0065000000 0.0065000000 0.0065000000 0.0065000000 0.0065000000 0.0065000000 0.0065000000 0.0065000000 0.0065000000 0.0065000000 0.0065000000 0.0065000000 0.0065000000 0.0065000000 0.0065000000 0.0065000000 0.0065000000 0.0065000000 0.0065000000 0.0065000000 0.0065000000 0.0065000000 0.0065000000 0.0065000000 0.0065000000 0.0065000000 0.0065000000 0.0065000000 0.0065000000 0.0065000000 0.0065000000 0.0065000000 0.0065000000 0.0065000000 0.0065000000 0.0065000000 0.0065000000 0.0065000000 0.0065000000 0.0065000000 0.0065000000 0.0065000000 0.0065000000 0.0065000000 0.0065000000 0.0065000000 0.0065000000 0.0065000000 0.0065000000 0.0065000000 0.0065000000 0.0065000000 0.0065000000 0.0065000000 0.0065000000 0.0065000000 0.0065000000 0.0065000000 0.0065000000 0.0065000000 0.0065000000 0.0065000000 0.0065000000 0.0065000000 0.0065000000 0.0065000000 0.0065000000 0.0065000000 0.0065000000 0.0065000000 0.0065000000 0.0065000000 0.0065000000 0.0065000000 0.0065000000 0.0065000000 0.0065000000 0.0065000000 0.0065000000 0.0065000000 0.0065000000 0.0065000000 0.0065000000 0.0065000000 0.0065000000 0.0065000000 0.0065000000 0.0065000000 0.0065000000 0.0065000000 0.0065000000 0.0065000000 0.0065000000 0.0065000000 0.0065000000 0.0065000000 0.0065000000 0.0065000000 0.0065000000 0.0065000000 0.0065000000 0.0065000000 0.0065000000 0.0065000000 0.0065000000 0.0065000000 0.0065000000 0.0065000000 0.0065000000 0.0065000000 0.0065000000 0.0065000000 0.0065000000 0.0065000000 0.0065000000 0.0065000000 0.0065000000 0.0065000000 0.0065000000 0.0065000000 0.0065000000 0.0065000000 0.0065000000 0.0065000000 0.0065000000 0.0065000000 0.0065000000 0.0065000000 0.0065000000 0.0065000000 0.0065000000 0.0065000000 0.0065000000 0.0065000000 0.0065000000 0.0065000000 0.0065000000 0.0065000000 0.0065000000 0.0065000000 0.0065000000 0.0065000000 0.0065000000 0.0065000000 0.0065000000 0.0065000000 0.0065000000 0.0065000000 0.0065000000 0.0065000000 0.0065000000 0.0065000000 0.0065000000 0.0065000000 0.0065000000 0.0065000000 0.0065000000 0.0065000000 0.0065000000 0.0065000000 0.0065000000 0.006500000