<?xml version="1.0"?>
<VTKFile type="UnstructuredGrid" version="0.1" byte_order="LittleEndian">
  <UnstructuredGrid>
    <FieldData>
      <DataArray type="Float32" Name="TIME"  NumberOfTuples="1" format="ascii"> 2.5482448760 </DataArray>
      <DataArray type="Int32"   Name="STEP"  NumberOfTuples="1" format="ascii"> 34170 </DataArray>
    </FieldData>
    <Piece NumberOfPoints="18081" NumberOfCells="18081">
      <Points>
        <DataArray type="Float32" NumberOfComponents="3" format="ascii">
 0.1114038409 0.0274892800 0.0000610878 0.1137009878 0.0044182006 0.0050883210 0.0691372464 0.0008851846 0.0086605378 0.2942391400 0.0185559125 0.0093004375 0.2663922164 0.0176957010 0.0121580356 0.1490643243 0.0004037876 0.0004827827 0.3667897407 0.0003329156 0.0006462648 0.3860195014 0.0224412431 0.0007655870 0.4673827585 0.0006142697 0.0292635683 0.2582047101 0.0015623844 0.0140591622 0.2914782033 0.0238809902 0.0066822128 0.4592006756 0.0648434107 0.0345684850 0.4666146107 0.0378973137 0.0005361096 0.4552469692 0.0705748087 0.0289681011 0.4433681861 0.0127574347 0.0209627954 0.4254013198 0.0373413077 0.0000613507 0.4245864899 0.0017556352 0.0121016208 0.3875782641 0.0379724385 0.0057828638 0.2348483274 0.0160272042 0.0152865723 0.4726868383 0.0034025559 0.0326924933 0.4036369849 0.0559004003 0.0307871445 0.0509639077 0.0144163032 0.0003987529 0.0316656047 0.0126428060 0.0004588992 0.0008573843 0.0788644026 0.0010621345 0.0127521314 0.0268409369 0.0064597508 0.3092907969 0.0048713100 0.0182593456 0.3392830410 0.0144764130 -0.0001092243 0.3288729674 0.0058591275 0.0005640451 0.4779570537 0.0016101497 0.0172211241 0.4526923591 0.0155716076 0.0332719550 0.4297353238 0.0545296040 0.0072790117 0.4080432900 0.0293177184 0.0063243841 0.4015519951 0.0644653881 0.0005688695 0.4843638963 0.0734774987 0.0349549698 0.4582348228 0.0343660182 0.0163097838 0.4236079511 0.0069615451 0.0192547172 0.4749852047 0.0196008713 0.0144266054 0.4041568280 0.0042216437 0.0027081404 0.2169918032 0.0071737048 0.0128979963 0.2347522923 0.0206744670 0.0122761929 0.0305586661 0.0101328296 0.0048281497 0.3829936061 0.0225940567 0.0217978638 0.1961336493 0.0019318396 -0.0004342060 0.1259929438 0.0053275438 0.0006279591 0.1148283983 0.0049754202 -0.0001514338 0.0558407766 0.0130741157 0.0006024905 0.2579742721 0.0020698745 0.0099976261 0.3579641626 0.0088420071 0.0006035333 0.3839262467 0.0432589886 0.0006581582 0.3101554472 0.0432086728 0.0230598548 0.2538919371 0.0324319254 0.0141343703 0.3473207765 0.0059963319 -0.0001239358 0.4699932374 0.0467507297 0.0007251543 0.4137800488 0.0699647999 0.0109615044 0.4006281260 0.0695197296 0.0038876516 0.4440555368 0.0326594949 0.0145666975 0.4205148009 0.0505552972 0.0187358026 0.3247241167 0.0050206561 0.0222482989 0.4653359723 0.0151918106 0.0253628717 0.4760224172 0.0087873386 0.0330786372 0.4848887259 0.0087017385 0.0316084682 0.3697423659 0.0290770969 0.0139610055 0.3159694835 0.0587163081 0.0330566270 0.0688120784 0.0222807136 0.0000444222 0.1626232394 0.0100382166 0.0001737260 0.1343399720 0.0102655342 0.0115455955 0.2414044382 0.0108277671 0.0121768540 0.3238834291 0.0232491192 0.0194872607 0.3425358843 0.0041741661 0.0158452013 0.3846182863 0.0071257467 0.0017293412 0.3371796460 0.0150026045 0.0085997728 0.4970175673 0.0100932773 0.0039522753 0.4849345994 0.0396500814 0.0242240123 0.4166564457 0.0838099989 0.0088583602 0.3813998665 0.0611876292 0.0022130218 0.4243305468 0.0693416349 0.0195392666 0.4379470742 0.0278871049 0.0233272777 0.3840569591 0.0173035234 0.0244568240 0.4357373817 0.0513512037 0.0247258861 0.0671129233 0.0162358003 0.0083973875 0.2490702542 0.0311339226 0.0087936801 0.0492049820 0.0079081575 0.0092445034 0.4437730439 0.0766360443 0.0229152330 0.3737015566 0.0249085398 0.0153239923 0.1216422381 0.0215813789 -0.0000933224 0.1590731903 0.0002392142 0.0001980167 0.2918551677 0.0046606229 0.0076933919 0.1653914254 0.0011734208 0.0001909689 0.0815624581 0.0114800353 0.0005459985 0.3167135097 0.0281624131 0.0066374752 0.3580596361 0.0318050691 0.0002286454 0.4779381334 0.0158988634 0.0206057145 0.2902700456 0.0446259650 0.0216123476 0.4667941699 0.0213176362 0.0021139204 0.4800064493 0.0539320862 0.0097359392 0.3599422249 0.0600419654 0.0132507072 0.3981151932 0.0474492381 0.0003571843 0.4519263869 0.0824509082 0.0138366522 0.4071020092 0.0113997630 0.0112654969 0.1925670154 0.0180992272 0.0140716406 0.3638057634 0.0209530163 0.0220155818 0.3064761339 0.0363443548 0.0323657373 0.4702595597 0.0130979563 0.0319416953 0.4302848901 0.0347113446 0.0330731956 0.4282956823 0.0767953716 0.0341881899 0.0862609250 0.0335058425 0.0002980907 0.1447334839 0.0298253815 -0.0003526199 0.2069011765 0.0000923923 0.0010274145 0.0834227129 0.0020020757 0.0043184987 0.2111187266 0.0018463753 0.0000115804 0.2815218037 0.0103062329 -0.0001348042 0.3944656187 0.0075673863 0.0003446705 0.4684653943 0.0007998414 0.0055108032 0.3304265507 0.0302408685 0.0196128082 0.3694148670 0.0218001728 0.0192519261 0.3820129863 0.0502438438 0.0101002697 0.3504028216 0.0560108545 0.0036030515 0.4142129383 0.0638527153 0.0243900446 0.4430100714 0.0663884066 0.0189801663 0.4440393253 0.0151797097 0.0015782093 0.2202355195 0.0283195725 0.0137504336 0.2738205917 0.0257432492 0.0003500854 0.0061762902 0.0082962649 0.0138092627 0.0804621530 0.0110761770 0.0086212492 0.4257746429 0.0181031334 0.0075785305 0.3952460966 0.0373027174 0.0127029714 0.2717996039 0.0101928695 0.0036704349 0.1685817464 0.0133577218 0.0042546814 0.1412897444 0.0017923201 -0.0000156385 0.0120130540 0.0281871065 0.0010215347 0.1864270811 0.0221130347 0.0069691063 0.2918924531 0.0017747310 0.0004182096 0.4382675593 0.0350994252 0.0062423756 0.2957758365 0.0372744921 0.0053178227 0.2980504201 0.0071563603 0.0002557725 0.4633232561 0.0518866457 0.0005481507 0.4336853726 0.0057552372 0.0006169442 0.4247978032 0.0867252423 0.0000983220 0.3944245930 0.0552016985 0.0111523176 0.4316648143 0.0766781187 0.0193370029 0.3924514436 0.0296930949 0.0228360671 0.3710913740 0.0353302299 0.0262253114 0.1687984559 0.0164224767 0.0075095229 0.2823331298 0.0513521651 0.0194937013 0.0128609999 0.0304096392 0.0170800561 0.4495702371 0.0719437423 0.0331479597 0.3188498597 0.0408527518 0.0326982727 0.2054409820 0.0046740562 0.0000183015 0.0257480194 0.0077843699 0.0132948044 0.1733626983 0.0409321269 0.0123094323 0.1231127047 0.0012383359 0.0030884742 0.1721563593 0.0211465126 0.0002000577 0.2633866592 0.0429517599 0.0087563703 0.4311012604 0.0115475477 0.0001537987 0.2939466051 0.0303619490 -0.0001241809 0.3038879138 0.0197121701 0.0051506548 0.3260468797 0.0333159791 0.0046488220 0.4776588438 0.0812621697 0.0343009665 0.3989912867 0.0729017566 0.0099836806 0.3385495838 0.0583195981 0.0174918040 0.3130451368 0.0182366166 0.0049454906 0.4402897807 0.0881886541 0.0189995408 0.3646000160 0.0326685092 0.0216295824 0.0130967639 0.0330956869 0.0059344904 0.0139153209 0.0609696986 0.0110846783 0.4601689894 0.0893906616 0.0233173124 0.1987406087 0.0412306783 0.0151907528 0.3568325738 0.0850276878 0.0304776638 0.2331251566 0.0007698482 0.0002561448 0.1882600667 0.0570523160 0.0124545409 0.0893267558 0.0006717987 0.0026503987 0.0951058157 0.0022526614 0.0050633928 0.0583815517 0.0134660482 0.0089623574 0.3072590465 0.0166255134 0.0003040909 0.3785339443 0.0137807565 0.0006033431 0.3031592755 0.0099666735 -0.0001189127 0.3927032693 0.0226444762 0.0116231698 0.3249460719 0.0344665647 0.0232647362 0.3852167416 0.0522042868 0.0144768900 0.4357230984 0.0677824853 0.0149142460 0.4546004793 0.0896494382 0.0291285505 0.3920132118 0.0803351372 0.0143926969 0.2627994192 0.0535902939 0.0002959192 0.2552946825 0.0376301134 -0.0001914507 0.4031082338 0.0491260242 0.0300361918 0.4490366956 0.0175782787 0.0239917493 0.4376522218 0.0199042690 0.0196118444 0.3751457708 0.0784369873 0.0165764476 0.2414082558 0.0227499161 0.0156342382 0.2482269045 0.0069935400 -0.0002552782 0.2673726791 0.0044274290 0.0082507588 0.1786131584 0.0074883488 -0.0002452651 0.1322630579 0.0186517761 0.0002318182 0.0246389473 0.0227290793 0.0118028034 0.3401051375 0.0247332778 0.0037308987 0.4181196603 0.0190125034 0.0000106022 0.4105644649 0.0080463087 0.0062225981 0.4629950722 0.0177703443 -0.0001069452 0.3424811326 0.0096592107 -0.0001030874 0.4078874380 0.0598437463 0.0090436278 0.3477328524 0.0766840240 0.0005489548 0.4781792643 0.0574550168 0.0195659118 0.4327447569 0.0901457673 0.0086348122 0.3935768524 0.0648170070 0.0090663866 0.4112931093 0.0406809782 0.0298098594 0.3497021383 0.0705036379 0.0286543316 0.4071896253 0.0711515769 0.0320743268 0.3419492006 0.0519268742 0.0303706167 0.1301141416 0.0549238537 0.0139392086 0.4753876347 0.0808131382 0.0273759280 0.2310302354 0.0734123371 -0.0003073816 0.2210123041 0.0847098844 0.0039891277 0.2400502953 0.0906449954 -0.0000827207 0.1885142848 0.0166464438 0.0074911632 0.1341274256 0.0573061680 0.0101464455 0.3184899142 0.0372610431 0.0002099335 0.3486415821 0.0335658921 -0.0003730270 0.2638141114 0.0586691304 0.0033904766 0.1902492898 0.0372200536 0.0100329114 0.4466743825 0.0194986048 0.0001444018 0.3521326293 0.0732618657 0.0107048864 0.3816021387 0.0814954452 0.0164920438 0.4051279536 0.0941633838 0.0088811951 0.3600213779 0.0800044660 0.0157127177 0.2662762943 0.0455954233 0.0078240632 0.4395426233 0.0667268000 0.0082705951 0.4134284782 0.0620441344 0.0295891182 0.1428376105 0.0408076289 0.0166926728 0.2440657416 0.0410364996 0.0142855105 0.0987669623 0.0742427439 0.0120154652 0.3466632798 0.0787794729 0.0316487752 0.2020778616 0.0487700283 0.0016328406 0.2048126975 0.0625717348 0.0004554447 0.1683633779 0.0857721152 0.0007565612 0.1646688011 0.0079253473 0.0037430461 0.2054879429 0.0288122301 0.0053395265 0.3170309460 0.0362614435 0.0059697512 0.3501657644 0.0438235393 0.0122209423 0.2795942421 0.0331390656 0.0000520253 0.1759485633 0.0194969663 0.0036316706 0.3357988844 0.0534095878 0.0051069053 0.3427695134 0.0782163194 0.0213290317 0.4825385474 0.0682761727 0.0110488662 0.33
[...]
      <PointData Scalars="smoothLength">
        <DataArray type="Float32" Name="smoothLength" format="ascii">
 0.0065000000 0.0065000000 0.0065000000 0.0065000000 0.0065000000 0.0065000000 0.0065000000 0.0065000000 0.0065000000 0.0065000000 0.0065000000 0.0065000000 0.0065000000 0.0065000000 0.0065000000 0.0065000000 0.0065000000 0.0065000000 0.0065000000 0.0065000000 0.0065000000 0.0065000000 0.0065000000 0.0065000000 0.0065000000 0.0065000000 0.0065000000 0.0065000000 0.0065000000 0.0065000000 0.0065000000 0.0065000000 0.0065000000 0.0065000000 0.0065000000 0.0065000000 0.0065000000 0.0065000000 0.0065000000 0.0065000000 0.0065000000 0.0065000000 0.0065000000 0.0065000000 0.0065000000 0.0065000000 0.0065000000 0.0065000000 0.0065000000 0.0065000000 0.0065000000 0.0065000000 0.0065000000 0.0065000000 0.0065000000 0.0065000000 0.0065000000 0.0065000000 0.0065000000 0.0065000000 0.0065000000 0.0065000000 0.0065000000 0.0065000000 0.0065000000 0.0065000000 0.0065000000 0.0065000000 0.0065000000 0.0065000000 0.0065000000 0.0065000000 0.0065000000 0.0065000000 0.0065000000 0.0065000000 0.0065000000 0.0065000000 0.0065000000 0.0065000000 0.0065000000 0.0065000000 0.0065000000 0.0065000000 0.0065000000 0.0065000000 0.0065000000 0.0065000000 0.0065000000 0.0065000000 0.0065000000 0.0065000000 0.0065000000 0.0065000000 0.0065000000 0.0065000000 0.0065000000 0.0065000000 0.0065000000 0.0065000000 0.0065000000 0.0065000000 0.0065000000 0.0065000000 0.0065000000 0.0065000000 0.0065000000 0.0065000000 0.0065000000 0.0065000000 0.0065000000 0.0065000000 0.0065000000 0.0065000000 0.0065000000 0.0065000000 0.0065000000 0.0065000000 0.0065000000 0.0065000000 0.0065000000 0.0065000000 0.0065000000 0.0065000000 0.0065000000 0.0065000000 0.0065000000 0.0065000000 0.0065000000 0.0065000000 0.0065000000 0.0065000000 0.0065000000 0.0065000000 0.0065000000 0.0065000000 0.0065000000 0.0065000000 0.0065000000 0.0065000000 0.0065000000 0.0065000000 0.0065000000 0.0065000000 0.0065000000 0.0065000000 0.0065000000 0.0065000000 0.0065000000 0.0065000000 0.0065000000 0.0065000000 0.0065000000 0.0065000000 0.0065000000 0.0065000000 0.0065000000 0.0065000000 0.0065000000 0.0065000000 0.0065000000 0.0065000000 0.0065000000 0.0065000000 0.0065000000 0.0065000000 0.0065000000 0.0065000000 0.0065000000 0.0065000000 0.0065000000 0.0065000000 0.0065000000 0.0065000000 0.0065000000 0.0065000000 0.0065000000 0.0065000000 0.0065000000 0.0065000000 0.0065000000 0.0065000000 0.0065000000 0.0065000000 0.0065000000 0.0065000000 0.0065000000 0.0065000000 0.0065000000 0.0065000000 0.0065000000 0.0065000000 0.0065000000 0.0065000000 0.0065000000 0.0065000000 0.0065000000 0.0065000000 0.0065000000 0.0065000000 0.0065000000 0.0065000000 0.0065000000 0.0065000000 0.0065000000 0.0065000000 0.0065000000 0.0065000000 0.0065000000 0.0065000000 0.0065000000 0.0065000000 0.0065000000 0.0065000000 0.0065000000 0.0065000000 0.0065000000 0.0065000000 0.0065000000 0.0065000000 0.0065000000 0.0065000000 0.0065000000 0.0065000000 0.0065000000 0.0065000000 0.0065000000 0.0065000000 0.0065000000 0.0065000000 0.0065000000 0.0065000000 0.0065000000 0.0065000000 0.0065000000 0.0065000000 0.0065000000 0.0065000000 0.0065000000 0.0065000000 0.0065000000 0.0065000000 0.0065000000 0.0065000000 0.0065000000 0.0065000000 0.0065000000 0.0065000000 0.0065000000 0.0065000000 0.0065000000 0.0065000000 0.0065000000 0.0065000000 0.0065000000 0.0065000000 0.0065000000 0.0065000000 0.0065000000 0.0065000000 0.0065000000 0.0065000000 0.0065000000 0.0065000000 0.0065000000 0.0065000000 0.0065000000 0.0065000000 0.0065000000 0.0065000000 0.0065000000 0.0065000000 0.0065000000 0.0065000000 0.0065000000 0.0065000000 0.0065000000 0.0065000000 0.0065000000 0.0065000000 0.0065000000 0.0065000000 0.0065000000 0.0065000000 0.0065000000 0.0065000000 0.0065000000 0.0065000000 0.0065000000 0.0065000000 0.0065000000 0.0065000000 0.0065000000 0.0065000000 0.0065000000 0.0065000000 0.0065000000 0.0065000000 0.0065000000 0.0065000000 0.0065000000 0.0065000000 0.0065000000 0.0065000000 0.0065000000 0.0065000000 0.0065000000 0.0065000000 0.0065000000 0.0065000000 0.0065000000 0.0065000000 0.0065000000 0.0065000000 0.0065000000 0.0065000000 0.0065000000 0.0065000000 0.0065000000 0.0065000000 0.0065000000 0.0065000000 0.0065000000 0.0065000000 0.0065000000 0.0065000000 0.0065000000 0.0065000000 0.0065000000 0.0065000000 0.0065000000 0.0065000000 0.0065000000 0.0065000000 0.0065000000 0.0065000000 0.0065000000 0.0065000000 0.0065000000 0.0065000000 0.0065000000 0.0065000000 0.0065000000 0.0065000000 0.0065000000 0.0065000000 0.0065000000 0.0065000000 0.0065000000 0.0065000000 0.0065000000 0.0065000000 0.0065000000 0.0065000000 0.0065000000 0.0065000000 0.0065000000 0.0065000000 0.0065000000 0.0065000000 0.0065000000 0.0065000000 0.0065000000 0.0065000000 0.0065000000 0.0065000000 0.0065000000 0.0065000000 0.0065000000 0.0065000000 0.0065000000 0.0065000000 0.0065000000 0.0065000000 0.0065000000 0.0065000000 0.0065000000 0.0065000000 0.0065000000 0.0065000000 0.0065000000 0.0065000000 0.0065000000 0.0065000000 0.0065000000 0.0065000000 0.0065000000 0.0065000000 0.0065000000 0.0065000000 0.0065000000 0.0065000000 0.0065000000 0.0065000000 0.0065000000 0.0065000000 0.0065000000 0.0065000000 0.0065000000 0.0065000000 0.0065000000 0.0065000000 0.0065000000 0.0065000000 0.0065000000 0.0065000000 0.0065000000 0.0065000000 0.0065000000 0.0065000000 0.0065000000 0.0065000000 0.0065000000 0.0065000000 0.0065000000 0.0065000000 0.0065000000 0.0065000000 0.0065000000 0.0065000000 0.0065000000 0.0065000000 0.0065000000 0.0065000000 0.0065000000 0.0065000000 0.0065000000 0.0065000000 0.0065000000 0.0065000000 0.0065000000 0.0065000000 0.0065000000 0.0065000000 0.0065000000 0.0065000000 0.0065000000 0.0065000000 0.0065000000 0.0065000000 0.0065000000 0.0065000000 0.0065000000 0.0065000000 0.0065000000 0.0065000000 0.0065000000 0.0065000000 0.0065000000 0.0065000000 0.0065000000 0.0065000000 0.0065000000 0.0065000000 0.0065000000 0.0065000000 0.0065000000 0.0065000000 0.0065000000 0.0065000000 0.0065000000 0.0065000000 0.0065000000 0.0065000000 0.0065000000 0.0065000000 0.0065000000 0.0065000000 0.0065000000 0.0065000000 0.0065000000 0.0065000000 0.0065000000 0.0065000000 0.0065000000 0.0065000000 0.0065000000 0.0065000000 0.0065000000 0.0065000000 0.0065000000 0.0065000000 0.0065000000 0.0065000000 0.0065000000 0.0065000000 0.0065000000 0.0065000000 0.0065000000 0.0065000000 0.0065000000 0.0065000000 0.0065000000 0.0065000000 0.0065000000 0.0065000000 0.0065000000 0.0065000000 0.0065000000 0.0065000000 0.0065000000 0.0065000000 0.0065000000 0.0065000000 0.0065000000 0.0065000000 0.0065000000 0.0065000000 0.0065000000 0.0065000000 0.0065000000 0.0065000000 0.0065000000 0.0065000000 0.0065000000 0.0065000000 0.0065000000 0.0065000000 0.0065000000 0.0065000000 0.0065000000 0.0065000000 0.0065000000 0.0065000000 0.0065000000 0.0065000000 0.0065000000 0.0065000000 0.0065000000 0.0065000000 0.0065000000 0.0065000000 0.0065000000 0.0065000000 0.0065000000 0.0065000000 0.0065000000 0.0065000000 0.0065000000 0.0065000000 0.0065000000 0.0065000000 0.0065000000 0.0065000000 0.0065000000 0.0065000000 0.0065000000 0.0065000000 0.0065000000 0.0065000000 0.0065000000 0.0065000000 0.0065000000 0.0065000000 0.0065000000 0.0065000000 0.0065000000 0.0065000000 0.0065000000 0.0065000000 0.0065000000 0.0065000000 0.0065000000 0.0065000000 0.0065000000 0.0065000000 0.0065000000 0.0065000000 0.0065000000 0.0065000000 0.0065000000 0.0065000000 0.0065000000 0.0065000000 0.0065000000 0.0065000000 0.0065000000 0.0065000000 0.0065000000 0.0065000000 0.0065000000 0.0065000000 0.0065000000 0.0065000000 0.0065000000 0.0065000000 0.0065000000 0.0065000000 0.0065000000 0.0065000000 0.0065000000 0.0065000000 0.0065000000 0.0065000000 0.0065000000 0.0065000000 0.0065000000 0.0065000000 0.0065000000 0.0065000000 0.0065000000 0.0065000000 0.0065000000 0.0065000000 0.0065000000 0.0065000000 0.0065000000 0.0065000000 0.0065000000 0.0065000000 0.0065000000 0.0065000000 0.0065000000 0.0065000000 0.0065000000 0.0065000000 0.0065000000 0.0065000000 0.0065000000 0.0065000000 0.0065000000 0.0065000000 0.0065000000 0.0065000000 0.0065000000 0.0065000000 0.0065000000 0.0065000000 0.0065000000 0.0065000000 0.0065000000 0.0065000000 0.0065000000 0.0065000000 0.0065000000 0.0065000000 0.0065000000 0.0065000000 0.0065000000 0.0065000000 0.0065000000 0.0065000000 0.0065000000 0.0065000000 0.0065000000 0.0065000000 0.0065000000 0.0065000000 0.0065000000 0.0065000000 0.0065000000 0.0065000000 0.0065000000 0.0065000000 0.0065000000 0.0065000000 0.0065000000 0.0065000000 0.0065000000 0.0065000000 0.0065000000 0.0065000000 0.0065000000 0.0065000000 0.0065000000 0.0065000000 0.0065000000 0.0065000000 0.0065000000 0.0065000000 0.0065000000 0.0065000000 0.0065000000 0.0065000000 0.0065000000 0.0065000000 0.0065000000 0.0065000000 0.0065000000 0.0065000000 0.0065000000 0.0065000000 0.0065000000 0.0065000000 0.0065000000 0.0065000000 0.0065000000 0.0065000000 0.0065000000 0.0065000000 0.0065000000 0.0065000000 0.0065000000 0.0065000000 0.0065000000 0.0065000000 0.0065000000 0.0065000000 0.0065000000 0.0065000000 0.0065000000 0.0065000000 0.0065000000 0.0065000000 0.0065000000 0.0065000000 0.0065000000 0.0065000000 0.0065000000 0.0065000000 0.0065000000 0.0065000000 0.0065000000 0.0065000000 0.0065000000 0.0065000000 0.0065000000 0.0065000000 0.0065000000 0.0065000000 0.0065000000 0.0065000000 0.0065000000 0.0065000000 0.0065000000 0.0065000000 0.0065000000 0.0065000000 0.0065000000 0.0065000000 0.0065000000 0.0065000000 0.0065000000 0.0065000000 0.0065000000 0.0065000000 0.0065000000 0.0065000000 0.0065000000 0.0065000000 0.0065000000 0.0065000000 0.0065000000 0.0065000000 0.0065000000 0.0065000000 0.0065000000 0.0065000000 0.0065000000 0.0065000000 0.0065000000 0.0065000000 0.0065000000 0.0065000000 0.0065000000 0.0065000000 0.0065000000 0.0065000000 0.0065000000 0.0065000000 0.0065000000 0.0065000000 0.0065000000 0.0065000000 0.0065000000 0.0065000000 0.0065000000 0.0065000000 0.0065000000 0.0065000000 0.0065000000 0.0065000000 0.0065000000 0.0065000000 0.0065000000 0.0065000000 0.0065000000 0.0065000000 0.0065000000 0.0065000000 0.0065000000 0.0065000000 0.0065000000 0.0065000000 0.0065000000 0.0065000000 0.0065000000 0.0065000000 0.0065000000 0.0065000000 0.0065000000 0.0065000000 0.0065000000 0.0065000000 0.0065000000 0.0065000000 0.0065000000 0.0065000000 0.0065000000 0.0065000000 0.0065000000 0.0065000000 0.0065000000 0.0065000000 0.0065000000 0.0065000000 0.0065000000 0.0065000000 0.0065000000 0.0065000000 0.0065000000 0.0065000000 0.0065000000 0.0065000000 0.0065000000 0.0065000000 0.0065000000 0.0065000000 0.0065000000 0.0065000000 0.0065000000 0.0065000000 0.0065000000 0.0065000000 0.0065000000 0.0065000000 0.0065000000 0.0065000000 0.0065000000 0.0065000000 0.0065000000 0.0065000000 0.0065000000 0.0065000000 0.0065000000 0.0065000000 0.0065000000 0.0065000000 0.0065000000 0.0065000000 0.0065000000 0.0065000000 0.0065000000 0.0065000000 0.0065000000 0.0065000000 0.0065000000 0.0065000000 0.0065000000 0.0065000000 0.0065000000 0.0065000000 0.0065000000 0.0065000000 0.0065000000 0.0065000000 0.0065000000 0.0065000000 0.0065000000 0.0065000000 0.0065000000 0.0065000000 0.0065000000 0.0065000000 0.0065000000 0.0065000000 0.0065000000 0.0065000000 0.0065000000 0.0065000000 0.0065000000 0.0065000000 0.0065000000 0.0065000000 0.0065000000 0.0065000000 0.0065000000 0.0065000000 0.0065000000 0.0065000000 0.0065000000 0.0065000000 0.0065000000 0.0065000000 0.0065000000 0.0065000000 0.0065000000 0.0065000000 0.0065000000 0.0065000000 0.0065000000 0.0065000000 0.0065000000 0.0065000000 0.0065000000 0.0065000000 0.0065000000 0.0065000000 0.0065000000 0.0065000000 0.0065000000 0.0065000000 0.0065000000 0.0065000000 0.0065000000 0.0065000000 0.0065000000 0.0065000000 0.0065000000 0.0065000000 0.0065000000 0.0065000000 0.0065000000 0.0065000000 0.0065000000 0.0065000000 0.0065000000 0.0065000000 0.0065000000 0.0065000000 0.0065000000 0.0065000000 0.0065000000 0.0065000000 0.0065000000 0.0065000000 0.0065000000 0.0065000000 0.0065000000 0.0065000000 0.0065000000 0.0065000000 0.0065000000 0.0065000000 0.0065000000 0.0065000000 0.0065000000 0.0065000000 0.0065000000 0.0065000000 0.0065000000 0.0065000000 0.0065000000 0.0065000000 0.0065000000 0.0065000000 0.0065000000 0.0065000000 0.0065000000 0.0065000000 0.0065000000 0.0065000000 0.0065000000 0.0065000000 0.0065000000 0.0065000000 0.0065000000 0.0065000000 0.0065000000 0.0065000000 0.0065000000 0.0065000000 0.0065000000 0.0065000000 0.0065000000 0.0065000000 0.0065000000 0.0065000000 0.0065000000 0.0065000000 0.0065000000 0.0065000000 0.0065000000 0.0065000000 0.0065000000 0.0065000000 0.0065000000 0.0065000000 0.0065000000 0.0065000000 0.0065000000 0.0065000000 0.0065000000 0.0065000000 0.0065000000 0.0065000000 0.0065000000 0.0065000000 0.0065000000 0.0065000000 0.0065000000 0.0065000000 0.0065000000 0.0065000000 0.0065000000 0.0065000000 0.0065000000 0.0065000000 0.0065000000 0.0065000000 0.0065000000 0.0065000000 0.0065000000 0.0065000000 0.0065000000 0.0065000000 0.0065000000 0.0065000000 0.0065000000 0.0065000000 0.0065000000 0.0065000000 0.0065000000 0.0065000000 0.0065000000 0.0065000000 0.0065000000 0.0065000000 0.0065000000 0.0065000000 0.0065000000 0.0065000000 0.0065000000 0.0065000000 0.0065000000 0.0065000000 0.0065000000 0.0065000000 0.0065000000 0.0065000000 0.0065000000 0.0065000000 0.0065000000 0.0065000000 0.0065000000 0.0065000000 0.0065000000 0.0065000000 0.0065000000 0.0065000000 0.0065000000 0.0065000000 0.0065000000 0.0065000000 0.0065000000 0.0065000000 0.0065000000 0.0065000000 0.0065000000 0.0065000000 0.0065000000 0.0065000000 0.0065000000 0.0065000000 0.0065000000 0.0065000000 0.0065000000 0.0065000000 0.0065000000 0.0065000000 0.0065000000 0.0065000000 0.0065000000 0.0065000000 0.0065000000 0.0065000000 0.0065000000 0.0065000000 0.0065000000 0.0065000000 0.0065000000 0.0065000000 0.0065000000 0.0065000000 0.0065000000 0.0065000000 0.0065000000 0.0065000000 0.0065000000 0.0065000000 0.0065000000 0.0065000000 0.0065000000 0.0065000000 0.0065000000 0.0065000000 0.0065000000 0.0065000000 0.0065000000 0.0065000000 0.0065000000 0.0065000000 0.0065000000 0.0065000000 0.0065000000 0.0065000000 0.0065000000 0.0065000000 0.0065000000 0.0065000000 0.0065000000 0.0065000000 0.0065000000 0.0065000000 0.0065000000 0.0065000000 0.0065000000 0.0065000000 0.0065000000 0.0065000000 0.0065000000 0.0065000000 0.0065000000 0.0065000000 0.0065000000 0.0065000000 0.0065000000 0.0065000000 0.0065000000 0.0065000000 0.0065000000 0.0065000000 0.0065000000 0.0065000000 0.0065000000 0.0065000000 0.0065000000 0.0065000000 0.0065000000 0.0065000000 0.0065000000 0.0065000000 0.0065000000 0.0065000000 0.0065000000 0.0065000000 0.0065000000 0.0065000000 0.0065000000 0.0065000000 0.0065000000 0.0065000000 0.0065000000 0.0065000000 0.0065000000 0.0065000000 0.0065000000 0.0065000000 0.0065000000 0.0065000000 0.0065000000 0.0065000000 0.0065000000 0.0065000000 0.0065000000 0.0065000000 0.0065000000 0.0065000000 0.0065000000 0.0065000000 0.0065000000 0.0065000000 0.0065000000 0.0065000000 0.0065000000 0.0065000000 0.0065000000 0.0065000000 0.0065000000 0.0065000000 0.0065000000 0.0065000000 0.0065000000 0.0065000000 0.0065000000 0.0065000000 0.0065000000 0.0065000000 0.0065000000 0.0065000000 0.0065000000 0.0065000000 0.0065000000 0.0065000000 0.0065000000 0.0065000000 0.0065000000 0.0065000000 0.0065000000 0.0065000000 0.0065000000 0.0065000000 0.0065000000 0.0065000000 0.0065000000 0.0065000000 0.0065000000 0.0065000000 0.0065000000 0.0065000000 0.0065000000 0.0065000000 0.0065000000 0.0065000000 0.0065000000 0.0065000000 0.0065000000 0.0065000000 0.0065000000 0.0065000000 0.0065000000 0.0065000000 0.0065000000 0.0065000000 0.0065000000 0.0065000000 0.0065000000 0.0065000000 0.0065000000 0.0065000000 0.0065000000 0.0065000000 0.0065000000 0.0065000000 0.0065000000 0.0065000000 0.0065000000 0.0065000000 0.0065000000 0.0065000000 0.0065000000 0.0065000000 0.0065000000 0.0065000000 0.0065000000 0.0065000000 0.0065000000 0.0065000000 0.0065000000 0.0065000000 0.0065000000 0.0065000000 0.0065000000 0.0065000000 0.0065000000 0.0065000000 0.0065000000 0.0065000000 0.0065000000 0.0065000000 0.0065000000 0.0065000000 0.0065000000 0.0065000000 0.0065000000 0.0065000000 0.0065000000 0.0065000000 0.0065000000 0.0065000000 0.0065000000 0.0065000000 0.0065000000 0.0065000000 0.0065000000 0.0065000000 0.0065000000 0.0065000000 0.0065000000 0.0065000000 0.0065000000 0.0065000000 0.0065000000 0.0065000000 0.0065000000 0.0065000000 0.0065000000 0.0065000000 0.0065000000 0.0065000000 0.0065000000 0.0065000000 0.0065000000 0.0065000000 0.0065000000 0.0065000000 0.0065000000 0.0065000000 0.0065000000 0.0065000000 0.0065000000 0.0065000000 0.0065000000 0.0065000000 0.0065000000 0.0065000000 0.0065000000 0.0065000000 0.0065000000 0.0065000000 0.0065000000 0.0065000000 0.0065000000 0.0065000000 0.0065000000 0.0065000000 0.0065000000 0.0065000000 0.0065000000 0.0065000000 0.0065000000 0.0065000000 0.0065000000 0.0065000000 0.0065000000 0.0065000000 0.0065000000 0.0065000000 0.0065000000 0.0065000000 0.0065000000 0.0065000000 0.0065000000 0.0065000000 0.0065000000 0.0065000000 0.0065000000 0.0065000000 0.0065000000 0.0065000000 0.0065000000 0.0065000000 0.0065000000 0.0065000000 0.0065000000 0.0065000000 0.0065000000 0.0065000000 0.0065000000 0.0065000000 0.0065000000 0.0065000000 0.0065000000 0.0065000000 0.0065000000 0.0065000000 0.0065000000 0.0065000000 0.0065000000 0.0065000000 0.0065000000 0.0065000000 0.0065000000 0.0065000000 0.0065000000 0.0065000000 0.0065000000 0.0065000000 0.0065000000 0.0065000000 0.0065000000 0.0065000000 0.0065000000 0.0065000000 0.0065000000 0.0065000000 0.0065000000 0.0065000000 0.0065000000 0.0065000000 0.0065000000 0.0065000000 0.0065000000 0.0065000000 0.0065000000 0.0065000000 0.0065000000 0.0065000000 0.0065000000 0.0065000000 0.0065000000 0.0065000000 0.0065000000 0.0065000000 0.0065000000 0.0065000000 0.0065000000 0.0065000000 0.0065000000 0.0065000000 0.0065000000 0.0065000000 0.0065000000 0.0065000000 0.0065000000 0.0065000000 0.0065000000 0.0065000000 0.0065000000 0.0065000000 0.0065000000 0.0065000000 0.0065000000 0.0065000000 0.0065000000 0.0065000000 0.0065000000 0.0065000000 0.0065000000 0.0065000000 0.0065000000 0.0065000000 0.0065000000 0.0065000000 0.0065000000 0.0065000000 0.0065000000 0.0065000000 0.0065000000 0.0065000000 0.0065000000 0.0065000000 0.0065000000 0.0065000000 0.0065000000 0.0065000000 0.0065000000 0.0065000000 0.0065000000 0.0065000000 0.0065000000 0.0065000000 0.0065000000 0.0065000000 0.0065000000 0.0065000000 0.0065000000 0.0065000000 0.0065000000 0.0065000000 0.0065000000 0.0065000000 0.0065000000 0.0065000000 0.0065000000 0.0065000000 0.0065000000 0.0065000000 0.0065000000 0.0065000000 0.0065000000 0.0065000000 0.0065000000 0.0065000000 0.0065000000 0.0065000000 0.0065000000 0.0065000000 0.0065000000 0.0065000000 0.0065000000 0.0065000000 0.0065000000 0.0065000000 0.0065000000 0.0065000000 0.0065000000 0.0065000000 0.0065000000 0.0065000000 0.0065000000 0.0065000000 0.0065000000 0.0065000000 0.0065000000 0.0065000000 0.0065000000 0.0065000000 0.0065000000 0.0065000000 0.0065000000 0.0065000000 0.0065000000 0.0065000000 0.0065000000 0.0065000000 0.0065000000 0.0065000000 0.0065000000 0.0065000000 0.0065000000 0.0065000000 0.0065000000 0.0065000000 0.0065000000 0.0065000000 0.0065000000 0.0065000000 0.0065000000 0.0065000000 0.0065000000 0.0065000000 0.0065000000 0.0065000000 0.0065000000 0.0065000000 0.0065000000 0.0065000000 0.0065000000 0.0065000000 0.0065000000 0.0065000000 0.0065000000 0.0065000000 0.0065000000 0.0065000000 0.0065000000 0.0065000000 0.0065000000 0.0065000000 0.0065000000 0.0065000000 0.0065000000 0.0065000000 0.0065000000 0.0065000000 0.0065000000 0.0065000000 0.0065000000 0.006500000