<?xml version="1.0"?>
<VTKFile type="UnstructuredGrid" version="0.1" byte_order="LittleEndian">
  <UnstructuredGrid>
    <FieldData>
      <DataArray type="Float32" Name="TIME"  NumberOfTuples="1" format="ascii"> 0.4996558580 </DataArray>
      <DataArray type="Int32"   Name="STEP"  NumberOfTuples="1" format="ascii"> 6700 </DataArray>
    </FieldData>
    <Piece NumberOfPoints="18081" NumberOfCells="18081">
      <Points>
        <DataArray type="Float32" NumberOfComponents="3" format="ascii">
 0.0038923317 -0.0005995166 -0.0006226300 0.0188772832 -0.0001130848 -0.0006005571 0.0378282152 -0.0003206796 -0.0005955379 0.0623900875 0.0000814353 -0.0004624843 0.0890424981 -0.0004027880 -0.0005042714 0.1133437582 -0.0004343376 0.0003407609 0.1458281703 -0.0002912671 -0.0006672368 0.1748730202 0.0016972219 -0.0010922551 0.2079068921 -0.0000287791 -0.0002480032 0.2415498733 0.0009745578 -0.0007034155 0.2790256048 0.0000006662 -0.0007680635 0.3086722085 -0.0004134010 -0.0005583932 0.3443829995 -0.0004182773 -0.0003659220 0.3865156513 -0.0005576770 0.0003446794 0.4162405437 -0.0005427929 0.0017809199 0.4637118937 -0.0006579506 0.0001424632 0.4934842242 0.0000766486 0.0007770484 0.4989583976 0.0021572723 0.0485107938 0.5007098856 -0.0000739686 0.0778900559 0.4994350322 0.0150639597 0.0518589869 0.4985996921 -0.0033791119 0.1687897813 0.0160959378 0.0079875879 -0.0006471530 0.0280690843 -0.0005390056 -0.0005918349 0.0551384320 -0.0002150349 -0.0006853558 0.0908318925 0.0061301630 -0.0008717151 0.1245788006 0.0033660074 0.0002601950 0.1602248664 0.0071486740 -0.0003358750 0.1936982451 0.0048247263 -0.0005516534 0.2191986611 0.0084940010 -0.0005074247 0.2490008259 0.0083678794 -0.0010111995 0.2871067668 0.0107925033 -0.0007120404 0.3294431974 0.0119906055 -0.0007157131 0.3615897116 0.0082401422 0.0001733464 0.4146933888 0.0084158108 -0.0001112960 0.4674526884 0.0033875647 -0.0009456159 0.4964505289 0.0000962429 0.0031681550 0.5002355876 0.0003516874 0.0123423629 0.5007274759 -0.0006260839 0.0384515625 0.5013939026 0.0062789493 0.0864166785 0.5010190991 0.0056996035 0.0899571491 0.4972571652 0.0040384847 0.1382035494 0.4987226939 0.0168987696 0.1688869876 0.0114456083 0.0125284142 0.0002605904 0.0225919529 0.0056424023 -0.0004926186 0.0318119429 0.0125968387 -0.0003022442 0.0679786086 0.0064572769 -0.0007044215 0.1056132360 0.0137008474 -0.0007199519 0.1274355105 0.0152198587 -0.0006832372 0.1651336251 0.0102102783 -0.0008914391 0.2048087432 0.0143951362 -0.0008887998 0.2443134574 0.0125231505 -0.0004419332 0.2743045357 0.0118533629 -0.0006779310 0.3112378414 0.0124729639 -0.0007373712 0.3549379664 0.0109178318 -0.0009007004 0.3953849294 0.0116620929 -0.0001122550 0.4402597955 0.0135512261 -0.0009007280 0.4842117072 0.0077645479 -0.0004520256 0.4999324761 0.0039479804 0.0052701565 0.4994636334 0.0048752872 0.0620165855 0.4980554021 0.0158636814 0.0998550144 0.5034071008 0.0070414557 0.1088533458 0.5045559510 0.0038336569 0.1461886686 0.5023365378 0.0098730010 0.1862682211 0.0208769823 0.0176325553 -0.0003907504 0.0218632656 0.0123455915 -0.0009341147 0.0477469742 0.0177334403 -0.0007635668 0.0848762889 0.0177104385 -0.0006207664 0.1230062269 0.0192565133 -0.0000855732 0.1600132576 0.0198133015 -0.0009817106 0.1923981277 0.0160652938 -0.0004070209 0.2265481967 0.0147591232 -0.0007325503 0.2661118045 0.0160311910 -0.0005763393 0.2972202642 0.0159296742 -0.0006566490 0.3362755081 0.0126363595 -0.0009306543 0.3794231159 0.0118334189 -0.0001599700 0.4193217310 0.0131773601 -0.0009433618 0.4451631883 0.0097087675 0.0018066624 0.4922631897 0.0121195808 0.0066197441 0.5001495017 0.0091548211 0.0009246048 0.4991011838 0.0143532595 0.0501435348 0.4962136044 0.0150498150 0.0896304658 0.4883469198 0.0164458302 0.0991483998 0.4970817375 0.0181974672 0.1342898989 0.5021099851 0.0168697759 0.1780070593 0.0119901925 0.0181130498 -0.0003369169 0.0289683025 0.0169827228 -0.0009844066 0.0515819289 0.0238080557 -0.0007788642 0.0911057489 0.0215356239 -0.0007229430 0.1104044796 0.0228191620 -0.0011740066 0.1399923356 0.0175235715 -0.0000823030 0.1878104868 0.0187769304 -0.0005189190 0.2203317464 0.0177588565 -0.0011221689 0.2496234349 0.0165941913 -0.0006305828 0.2868827109 0.0174115136 -0.0010034490 0.3256221522 0.0165468079 -0.0003641516 0.3711423319 0.0198083277 -0.0007529193 0.4042885922 0.0193609336 0.0001689120 0.4488120941 0.0133253527 -0.0014922379 0.4853468493 0.0165767144 0.0011693936 0.5012738276 0.0119164474 0.0087951688 0.4987765971 0.0144561923 0.0605318189 0.4978169143 0.0163798943 0.0925802639 0.5011505040 0.0208281158 0.1098134914 0.5006788989 0.0223869381 0.1425549060 0.5016807356 0.0125449807 0.1847227069 0.0186116432 0.0274253223 -0.0011368424 0.0238214109 0.0223659285 -0.0008462020 0.0487164447 0.0282498255 -0.0005201167 0.0855262815 0.0253136811 -0.0004413979 0.1212417931 0.0237857602 -0.0003172930 0.1675032305 0.0220179895 0.0000958044 0.1972651374 0.0295096898 -0.0005200506 0.2164623712 0.0222965136 -0.0006438469 0.2462944760 0.0288143663 -0.0004657967 0.2787059820 0.0228427709 -0.0005788913 0.3100140627 0.0214827707 -0.0004516042 0.3594518106 0.0289492556 -0.0000156360 0.3871865080 0.0235546307 -0.0003342989 0.4352343296 0.0234389742 0.0000591836 0.4806109730 0.0210243094 0.0005498743 0.5000973413 0.0190589544 0.0030870786 0.4997184379 0.0274671582 0.0687587363 0.4930371589 0.0227177841 0.0921682872 0.4984494984 0.0277628792 0.1017230947 0.4970922458 0.0255760292 0.1249936746 0.5035848802 0.0316968451 0.1754922356 0.0241111199 0.0319276141 -0.0004448911 0.0328632227 0.0279048478 -0.0007948147 0.0514132077 0.0333692895 -0.0007916085 0.0989888340 0.0326847287 -0.0005161487 0.1256036736 0.0264294042 -0.0004830930 0.1570919179 0.0249600835 -0.0004385387 0.1863211552 0.0286869868 -0.0005792144 0.2212962599 0.0262770914 -0.0009880262 0.2596137895 0.0273071088 -0.0006137064 0.2833990469 0.0348743181 -0.0003878938 0.3154984723 0.0292431849 0.0001294958 0.3636878538 0.0261755510 -0.0005705341 0.3924955660 0.0273982214 -0.0005994681 0.4383102483 0.0265828972 -0.0007082037 0.4846460634 0.0228076199 -0.0012605900 0.4997142321 0.0270186894 -0.0007771317 0.4962667103 0.0294129066 0.0733639895 0.4928067983 0.0324113798 0.0875011433 0.4952152566 0.0254964408 0.1156080329 0.4916648437 0.0209913240 0.1412215061 0.4976354931 0.0186476266 0.1656135510 0.0092244582 0.0291825146 -0.0007129601 0.0360526175 0.0321825280 -0.0005342893 0.0495017267 0.0378984081 -0.0002946861 0.0798861596 0.0355824968 -0.0006229239 0.1190634298 0.0296740907 -0.0000702623 0.1465157252 0.0330178480 0.0001492836 0.1871260036 0.0365179356 -0.0007685327 0.2172076468 0.0315066838 -0.0003346280 0.2494406115 0.0340581834 -0.0008722852 0.2663317902 0.0323415772 -0.0008197985 0.3106985764 0.0295873205 0.0001379937 0.3571574598 0.0334558845 -0.0008952731 0.3807610124 0.0314254003 -0.0006363510 0.4444459563 0.0304453502 -0.0005047862 0.4866212615 0.0288050888 0.0019156026 0.4999421099 0.0302352020 0.0235549452 0.5023393274 0.0327931689 0.0047023152 0.4910998721 0.0287009461 0.0799203037 0.5017118975 0.0250774363 0.1122830444 0.4987044735 0.0251630218 0.1495717255 0.4942137167 0.0301298818 0.1492627593 0.0158413303 0.0320726235 -0.0000835115 0.0296666518 0.0371991387 -0.0002726406 0.0553012873 0.0416981010 -0.0009224531 0.0964148082 0.0366198442 -0.0006821316 0.1224510840 0.0346179536 -0.0008982063 0.1578342913 0.0354665181 -0.0003647494 0.1817157837 0.0374645614 0.0001228724 0.2260140427 0.0363590872 -0.0000511229 0.2553077167 0.0370779551 -0.0007416219 0.2776865297 0.0364705656 -0.0008280116 0.3200969351 0.0370810054 -0.0007668826 0.3651285304 0.0313580779 -0.0003412057 0.3882912754 0.0319558479 -0.0008791841 0.4433232047 0.0342637593 0.0024796672 0.4863218052 0.0366637943 0.0000142082 0.5007337345 0.0357802583 0.0114761339 0.4984554704 0.0403730402 0.0661567788 0.4910341053 0.0366135997 0.0913663619 0.4992765003 0.0430809641 0.1043250084 0.4983325628 0.0435331207 0.1474993881 0.4930360286 0.0288667745 0.1489978046 0.0122403618 0.0360879594 -0.0005321572 0.0222540072 0.0413389370 -0.0004320662 0.0386173297 0.0453992425 -0.0007382748 0.0838836765 0.0402918136 -0.0007072863 0.1271689041 0.0432500573 -0.0010284940 0.1497960506 0.0370790632 -0.0006901683 0.1909868453 0.0422157552 -0.0005612166 0.2160837243 0.0398640865 -0.0004305224 0.2480112172 0.0424416255 -0.0003337280 0.2799416959 0.0424624586 -0.0009279942 0.3114664704 0.0400771377 -0.0007607341 0.3607195991 0.0365316846 -0.0002409131 0.3949419271 0.0410629739 -0.0010112069 0.4422600978 0.0390250584 0.0034068545 0.4841396274 0.0425113727 0.0019015114 0.5002514560 0.0392439448 0.0138867639 0.5016505545 0.0403858566 0.0506315635 0.5015780950 0.0420588101 0.0951577228 0.5035920935 0.0399849599 0.1212617873 0.4967464200 0.0427607096 0.1415620930 0.5032380547 0.0439981978 0.1917869118 0.0145673791 0.0418501518 -0.0008904342 0.0249099140 0.0465438722 -0.0007782084 0.0512991858 0.0468023895 -0.0003799542 0.0964411485 0.0426294798 -0.0005546337 0.1187681104 0.0463895078 -0.0007558092 0.1514633948 0.0425376028 -0.0009456093 0.1849616288 0.0466422432 -0.0001931021 0.2227945244 0.0415183844 -0.0009606821 0.2511106761 0.0476271059 -0.0010893732 0.2781480395 0.0468469203 -0.0001756934 0.3118122834 0.0469437752 -0.0008153860 0.3613155456 0.0406978688 0.0001223633 0.3906356550 0.0462338770 -0.0000758369 0.4435394154 0.0432388247 0.0033076932 0.4864444860 0.0468301609 0.0019412086 0.4995400320 0.0478593483 0.0134467058 0.4984821869 0.0476454426 0.0669992232 0.4911765858 0.0486974596 0.0843351018 0.5022747429 0.0459350643 0.0992983120 0.4972152292 0.0442930438 0.1471952526 0.5003112897 0.0376705975 0.2000005191 0.0181770897 0.0463446081 -0.0003153218 0.0220539567 0.0509393650 -0.0006015744 0.0471553199 0.0528510104 -0.0001234912 0.0851277565 0.0453513546 -0.0004247555 0.1216208018 0.0513614543 -0.0007393454 0.1578256339 0.0525980441 -0.0005239031 0.1944467852 0.0497561207 -0.0006568150 0.2195362283 0.0451543805 -0.0007019091 0.2573587795 0
[...]
      <PointData Scalars="smoothLength">
        <DataArray type="Float32" Name="smoothLength" format="ascii">
 0.0065000000 0.0065000000 0.0065000000 0.0065000000 0.0065000000 0.0065000000 0.0065000000 0.0065000000 0.0065000000 0.0065000000 0.0065000000 0.0065000000 0.0065000000 0.0065000000 0.0065000000 0.0065000000 0.0065000000 0.0065000000 0.0065000000 0.0065000000 0.0065000000 0.0065000000 0.0065000000 0.0065000000 0.0065000000 0.0065000000 0.0065000000 0.0065000000 0.0065000000 0.0065000000 0.0065000000 0.0065000000 0.0065000000 0.0065000000 0.0065000000 0.0065000000 0.0065000000 0.0065000000 0.0065000000 0.0065000000 0.0065000000 0.0065000000 0.0065000000 0.0065000000 0.0065000000 0.0065000000 0.0065000000 0.0065000000 0.0065000000 0.0065000000 0.0065000000 0.0065000000 0.0065000000 0.0065000000 0.0065000000 0.0065000000 0.0065000000 0.0065000000 0.0065000000 0.0065000000 0.0065000000 0.0065000000 0.0065000000 0.0065000000 0.0065000000 0.0065000000 0.0065000000 0.0065000000 0.0065000000 0.0065000000 0.0065000000 0.0065000000 0.0065000000 0.0065000000 0.0065000000 0.0065000000 0.0065000000 0.0065000000 0.0065000000 0.0065000000 0.0065000000 0.0065000000 0.0065000000 0.0065000000 0.0065000000 0.0065000000 0.0065000000 0.0065000000 0.0065000000 0.0065000000 0.0065000000 0.0065000000 0.0065000000 0.0065000000 0.0065000000 0.0065000000 0.0065000000 0.0065000000 0.0065000000 0.0065000000 0.0065000000 0.0065000000 0.0065000000 0.0065000000 0.0065000000 0.0065000000 0.0065000000 0.0065000000 0.0065000000 0.0065000000 0.0065000000 0.0065000000 0.0065000000 0.0065000000 0.0065000000 0.0065000000 0.0065000000 0.0065000000 0.0065000000 0.0065000000 0.0065000000 0.0065000000 0.0065000000 0.0065000000 0.0065000000 0.0065000000 0.0065000000 0.0065000000 0.0065000000 0.0065000000 0.0065000000 0.0065000000 0.0065000000 0.0065000000 0.0065000000 0.0065000000 0.0065000000 0.0065000000 0.0065000000 0.0065000000 0.0065000000 0.0065000000 0.0065000000 0.0065000000 0.0065000000 0.0065000000 0.0065000000 0.0065000000 0.0065000000 0.0065000000 0.0065000000 0.0065000000 0.0065000000 0.0065000000 0.0065000000 0.0065000000 0.0065000000 0.0065000000 0.0065000000 0.0065000000 0.0065000000 0.0065000000 0.0065000000 0.0065000000 0.0065000000 0.0065000000 0.0065000000 0.0065000000 0.0065000000 0.0065000000 0.0065000000 0.0065000000 0.0065000000 0.0065000000 0.0065000000 0.0065000000 0.0065000000 0.0065000000 0.0065000000 0.0065000000 0.0065000000 0.0065000000 0.0065000000 0.0065000000 0.0065000000 0.0065000000 0.0065000000 0.0065000000 0.0065000000 0.0065000000 0.0065000000 0.0065000000 0.0065000000 0.0065000000 0.0065000000 0.0065000000 0.0065000000 0.0065000000 0.0065000000 0.0065000000 0.0065000000 0.0065000000 0.0065000000 0.0065000000 0.0065000000 0.0065000000 0.0065000000 0.0065000000 0.0065000000 0.0065000000 0.0065000000 0.0065000000 0.0065000000 0.0065000000 0.0065000000 0.0065000000 0.0065000000 0.0065000000 0.0065000000 0.0065000000 0.0065000000 0.0065000000 0.0065000000 0.0065000000 0.0065000000 0.0065000000 0.0065000000 0.0065000000 0.0065000000 0.0065000000 0.0065000000 0.0065000000 0.0065000000 0.0065000000 0.0065000000 0.0065000000 0.0065000000 0.0065000000 0.0065000000 0.0065000000 0.0065000000 0.0065000000 0.0065000000 0.0065000000 0.0065000000 0.0065000000 0.0065000000 0.0065000000 0.0065000000 0.0065000000 0.0065000000 0.0065000000 0.0065000000 0.0065000000 0.0065000000 0.0065000000 0.0065000000 0.0065000000 0.0065000000 0.0065000000 0.0065000000 0.0065000000 0.0065000000 0.0065000000 0.0065000000 0.0065000000 0.0065000000 0.0065000000 0.0065000000 0.0065000000 0.0065000000 0.0065000000 0.0065000000 0.0065000000 0.0065000000 0.0065000000 0.0065000000 0.0065000000 0.0065000000 0.0065000000 0.0065000000 0.0065000000 0.0065000000 0.0065000000 0.0065000000 0.0065000000 0.0065000000 0.0065000000 0.0065000000 0.0065000000 0.0065000000 0.0065000000 0.0065000000 0.0065000000 0.0065000000 0.0065000000 0.0065000000 0.0065000000 0.0065000000 0.0065000000 0.0065000000 0.0065000000 0.0065000000 0.0065000000 0.0065000000 0.0065000000 0.0065000000 0.0065000000 0.0065000000 0.0065000000 0.0065000000 0.0065000000 0.0065000000 0.0065000000 0.0065000000 0.0065000000 0.0065000000 0.0065000000 0.0065000000 0.0065000000 0.0065000000 0.0065000000 0.0065000000 0.0065000000 0.0065000000 0.0065000000 0.0065000000 0.0065000000 0.0065000000 0.0065000000 0.0065000000 0.0065000000 0.0065000000 0.0065000000 0.0065000000 0.0065000000 0.0065000000 0.0065000000 0.0065000000 0.0065000000 0.0065000000 0.0065000000 0.0065000000 0.0065000000 0.0065000000 0.0065000000 0.0065000000 0.0065000000 0.0065000000 0.0065000000 0.0065000000 0.0065000000 0.0065000000 0.0065000000 0.0065000000 0.0065000000 0.0065000000 0.0065000000 0.0065000000 0.0065000000 0.0065000000 0.0065000000 0.0065000000 0.0065000000 0.0065000000 0.0065000000 0.0065000000 0.0065000000 0.0065000000 0.0065000000 0.0065000000 0.0065000000 0.0065000000 0.0065000000 0.0065000000 0.0065000000 0.0065000000 0.0065000000 0.0065000000 0.0065000000 0.0065000000 0.0065000000 0.0065000000 0.0065000000 0.0065000000 0.0065000000 0.0065000000 0.0065000000 0.0065000000 0.0065000000 0.0065000000 0.0065000000 0.0065000000 0.0065000000 0.0065000000 0.0065000000 0.0065000000 0.0065000000 0.0065000000 0.0065000000 0.0065000000 0.0065000000 0.0065000000 0.0065000000 0.0065000000 0.0065000000 0.0065000000 0.0065000000 0.0065000000 0.0065000000 0.0065000000 0.0065000000 0.0065000000 0.0065000000 0.0065000000 0.0065000000 0.0065000000 0.0065000000 0.0065000000 0.0065000000 0.0065000000 0.0065000000 0.0065000000 0.0065000000 0.0065000000 0.0065000000 0.0065000000 0.0065000000 0.0065000000 0.0065000000 0.0065000000 0.0065000000 0.0065000000 0.0065000000 0.0065000000 0.0065000000 0.0065000000 0.0065000000 0.0065000000 0.0065000000 0.0065000000 0.0065000000 0.0065000000 0.0065000000 0.0065000000 0.0065000000 0.0065000000 0.0065000000 0.0065000000 0.0065000000 0.0065000000 0.0065000000 0.0065000000 0.0065000000 0.0065000000 0.0065000000 0.0065000000 0.0065000000 0.0065000000 0.0065000000 0.0065000000 0.0065000000 0.0065000000 0.0065000000 0.0065000000 0.0065000000 0.0065000000 0.0065000000 0.0065000000 0.0065000000 0.0065000000 0.0065000000 0.0065000000 0.0065000000 0.0065000000 0.0065000000 0.0065000000 0.0065000000 0.0065000000 0.0065000000 0.0065000000 0.0065000000 0.0065000000 0.0065000000 0.0065000000 0.0065000000 0.0065000000 0.0065000000 0.0065000000 0.0065000000 0.0065000000 0.0065000000 0.0065000000 0.0065000000 0.0065000000 0.0065000000 0.0065000000 0.0065000000 0.0065000000 0.0065000000 0.0065000000 0.0065000000 0.0065000000 0.0065000000 0.0065000000 0.0065000000 0.0065000000 0.0065000000 0.0065000000 0.0065000000 0.0065000000 0.0065000000 0.0065000000 0.0065000000 0.0065000000 0.0065000000 0.0065000000 0.0065000000 0.0065000000 0.0065000000 0.0065000000 0.0065000000 0.0065000000 0.0065000000 0.0065000000 0.0065000000 0.0065000000 0.0065000000 0.0065000000 0.0065000000 0.0065000000 0.0065000000 0.0065000000 0.0065000000 0.0065000000 0.0065000000 0.0065000000 0.0065000000 0.0065000000 0.0065000000 0.0065000000 0.0065000000 0.0065000000 0.0065000000 0.0065000000 0.0065000000 0.0065000000 0.0065000000 0.0065000000 0.0065000000 0.0065000000 0.0065000000 0.0065000000 0.0065000000 0.0065000000 0.0065000000 0.0065000000 0.0065000000 0.0065000000 0.0065000000 0.0065000000 0.0065000000 0.0065000000 0.0065000000 0.0065000000 0.0065000000 0.0065000000 0.0065000000 0.0065000000 0.0065000000 0.0065000000 0.0065000000 0.0065000000 0.0065000000 0.0065000000 0.0065000000 0.0065000000 0.0065000000 0.0065000000 0.0065000000 0.0065000000 0.0065000000 0.0065000000 0.0065000000 0.0065000000 0.0065000000 0.0065000000 0.0065000000 0.0065000000 0.0065000000 0.0065000000 0.0065000000 0.0065000000 0.0065000000 0.0065000000 0.0065000000 0.0065000000 0.0065000000 0.0065000000 0.0065000000 0.0065000000 0.0065000000 0.0065000000 0.0065000000 0.0065000000 0.0065000000 0.0065000000 0.0065000000 0.0065000000 0.0065000000 0.0065000000 0.0065000000 0.0065000000 0.0065000000 0.0065000000 0.0065000000 0.0065000000 0.0065000000 0.0065000000 0.0065000000 0.0065000000 0.0065000000 0.0065000000 0.0065000000 0.0065000000 0.0065000000 0.0065000000 0.0065000000 0.0065000000 0.0065000000 0.0065000000 0.0065000000 0.0065000000 0.0065000000 0.0065000000 0.0065000000 0.0065000000 0.0065000000 0.0065000000 0.0065000000 0.0065000000 0.0065000000 0.0065000000 0.0065000000 0.0065000000 0.0065000000 0.0065000000 0.0065000000 0.0065000000 0.0065000000 0.0065000000 0.0065000000 0.0065000000 0.0065000000 0.0065000000 0.0065000000 0.0065000000 0.0065000000 0.0065000000 0.0065000000 0.0065000000 0.0065000000 0.0065000000 0.0065000000 0.0065000000 0.0065000000 0.0065000000 0.0065000000 0.0065000000 0.0065000000 0.0065000000 0.0065000000 0.0065000000 0.0065000000 0.0065000000 0.0065000000 0.0065000000 0.0065000000 0.0065000000 0.0065000000 0.0065000000 0.0065000000 0.0065000000 0.0065000000 0.0065000000 0.0065000000 0.0065000000 0.0065000000 0.0065000000 0.0065000000 0.0065000000 0.0065000000 0.0065000000 0.0065000000 0.0065000000 0.0065000000 0.0065000000 0.0065000000 0.0065000000 0.0065000000 0.0065000000 0.0065000000 0.0065000000 0.0065000000 0.0065000000 0.0065000000 0.0065000000 0.0065000000 0.0065000000 0.0065000000 0.0065000000 0.0065000000 0.0065000000 0.0065000000 0.0065000000 0.0065000000 0.0065000000 0.0065000000 0.0065000000 0.0065000000 0.0065000000 0.0065000000 0.0065000000 0.0065000000 0.0065000000 0.0065000000 0.0065000000 0.0065000000 0.0065000000 0.0065000000 0.0065000000 0.0065000000 0.0065000000 0.0065000000 0.0065000000 0.0065000000 0.0065000000 0.0065000000 0.0065000000 0.0065000000 0.0065000000 0.0065000000 0.0065000000 0.0065000000 0.0065000000 0.0065000000 0.0065000000 0.0065000000 0.0065000000 0.0065000000 0.0065000000 0.0065000000 0.0065000000 0.0065000000 0.0065000000 0.0065000000 0.0065000000 0.0065000000 0.0065000000 0.0065000000 0.0065000000 0.0065000000 0.0065000000 0.0065000000 0.0065000000 0.0065000000 0.0065000000 0.0065000000 0.0065000000 0.0065000000 0.0065000000 0.0065000000 0.0065000000 0.0065000000 0.0065000000 0.0065000000 0.0065000000 0.0065000000 0.0065000000 0.0065000000 0.0065000000 0.0065000000 0.0065000000 0.0065000000 0.0065000000 0.0065000000 0.0065000000 0.0065000000 0.0065000000 0.0065000000 0.0065000000 0.0065000000 0.0065000000 0.0065000000 0.0065000000 0.0065000000 0.0065000000 0.0065000000 0.0065000000 0.0065000000 0.0065000000 0.0065000000 0.0065000000 0.0065000000 0.0065000000 0.0065000000 0.0065000000 0.0065000000 0.0065000000 0.0065000000 0.0065000000 0.0065000000 0.0065000000 0.0065000000 0.0065000000 0.0065000000 0.0065000000 0.0065000000 0.0065000000 0.0065000000 0.0065000000 0.0065000000 0.0065000000 0.0065000000 0.0065000000 0.0065000000 0.0065000000 0.0065000000 0.0065000000 0.0065000000 0.0065000000 0.0065000000 0.0065000000 0.0065000000 0.0065000000 0.0065000000 0.0065000000 0.0065000000 0.0065000000 0.0065000000 0.0065000000 0.0065000000 0.0065000000 0.0065000000 0.0065000000 0.0065000000 0.0065000000 0.0065000000 0.0065000000 0.0065000000 0.0065000000 0.0065000000 0.0065000000 0.0065000000 0.0065000000 0.0065000000 0.0065000000 0.0065000000 0.0065000000 0.0065000000 0.0065000000 0.0065000000 0.0065000000 0.0065000000 0.0065000000 0.0065000000 0.0065000000 0.0065000000 0.0065000000 0.0065000000 0.0065000000 0.0065000000 0.0065000000 0.0065000000 0.0065000000 0.0065000000 0.0065000000 0.0065000000 0.0065000000 0.0065000000 0.0065000000 0.0065000000 0.0065000000 0.0065000000 0.0065000000 0.0065000000 0.0065000000 0.0065000000 0.0065000000 0.0065000000 0.0065000000 0.0065000000 0.0065000000 0.0065000000 0.0065000000 0.0065000000 0.0065000000 0.0065000000 0.0065000000 0.0065000000 0.0065000000 0.0065000000 0.0065000000 0.0065000000 0.0065000000 0.0065000000 0.0065000000 0.0065000000 0.0065000000 0.0065000000 0.0065000000 0.0065000000 0.0065000000 0.0065000000 0.0065000000 0.0065000000 0.0065000000 0.0065000000 0.0065000000 0.0065000000 0.0065000000 0.0065000000 0.0065000000 0.0065000000 0.0065000000 0.0065000000 0.0065000000 0.0065000000 0.0065000000 0.0065000000 0.0065000000 0.0065000000 0.0065000000 0.0065000000 0.0065000000 0.0065000000 0.0065000000 0.0065000000 0.0065000000 0.0065000000 0.0065000000 0.0065000000 0.0065000000 0.0065000000 0.0065000000 0.0065000000 0.0065000000 0.0065000000 0.0065000000 0.0065000000 0.0065000000 0.0065000000 0.0065000000 0.0065000000 0.0065000000 0.0065000000 0.0065000000 0.0065000000 0.0065000000 0.0065000000 0.0065000000 0.0065000000 0.0065000000 0.0065000000 0.0065000000 0.0065000000 0.0065000000 0.0065000000 0.0065000000 0.0065000000 0.0065000000 0.0065000000 0.0065000000 0.0065000000 0.0065000000 0.0065000000 0.0065000000 0.0065000000 0.0065000000 0.0065000000 0.0065000000 0.0065000000 0.0065000000 0.0065000000 0.0065000000 0.0065000000 0.0065000000 0.0065000000 0.0065000000 0.0065000000 0.0065000000 0.0065000000 0.0065000000 0.0065000000 0.0065000000 0.0065000000 0.0065000000 0.0065000000 0.0065000000 0.0065000000 0.0065000000 0.0065000000 0.0065000000 0.0065000000 0.0065000000 0.0065000000 0.0065000000 0.0065000000 0.0065000000 0.0065000000 0.0065000000 0.0065000000 0.0065000000 0.0065000000 0.0065000000 0.0065000000 0.0065000000 0.0065000000 0.0065000000 0.0065000000 0.0065000000 0.0065000000 0.0065000000 0.0065000000 0.0065000000 0.0065000000 0.0065000000 0.0065000000 0.0065000000 0.0065000000 0.0065000000 0.0065000000 0.0065000000 0.0065000000 0.0065000000 0.0065000000 0.0065000000 0.0065000000 0.0065000000 0.0065000000 0.0065000000 0.0065000000 0.0065000000 0.0065000000 0.0065000000 0.0065000000 0.0065000000 0.0065000000 0.0065000000 0.0065000000 0.0065000000 0.0065000000 0.0065000000 0.0065000000 0.0065000000 0.0065000000 0.0065000000 0.0065000000 0.0065000000 0.0065000000 0.0065000000 0.0065000000 0.0065000000 0.0065000000 0.0065000000 0.0065000000 0.0065000000 0.0065000000 0.0065000000 0.0065000000 0.0065000000 0.0065000000 0.0065000000 0.0065000000 0.0065000000 0.0065000000 0.0065000000 0.0065000000 0.0065000000 0.0065000000 0.0065000000 0.0065000000 0.0065000000 0.0065000000 0.0065000000 0.0065000000 0.0065000000 0.0065000000 0.0065000000 0.0065000000 0.0065000000 0.0065000000 0.0065000000 0.0065000000 0.0065000000 0.0065000000 0.0065000000 0.0065000000 0.0065000000 0.0065000000 0.0065000000 0.0065000000 0.0065000000 0.0065000000 0.0065000000 0.0065000000 0.0065000000 0.0065000000 0.0065000000 0.0065000000 0.0065000000 0.0065000000 0.0065000000 0.0065000000 0.0065000000 0.0065000000 0.0065000000 0.0065000000 0.0065000000 0.0065000000 0.0065000000 0.0065000000 0.0065000000 0.0065000000 0.0065000000 0.0065000000 0.0065000000 0.0065000000 0.0065000000 0.0065000000 0.0065000000 0.0065000000 0.0065000000 0.0065000000 0.0065000000 0.0065000000 0.0065000000 0.0065000000 0.0065000000 0.0065000000 0.0065000000 0.0065000000 0.0065000000 0.0065000000 0.0065000000 0.0065000000 0.0065000000 0.0065000000 0.0065000000 0.0065000000 0.0065000000 0.0065000000 0.0065000000 0.0065000000 0.0065000000 0.0065000000 0.0065000000 0.0065000000 0.0065000000 0.0065000000 0.0065000000 0.0065000000 0.0065000000 0.0065000000 0.0065000000 0.0065000000 0.0065000000 0.0065000000 0.0065000000 0.0065000000 0.0065000000 0.0065000000 0.0065000000 0.0065000000 0.0065000000 0.0065000000 0.0065000000 0.0065000000 0.0065000000 0.0065000000 0.0065000000 0.0065000000 0.0065000000 0.0065000000 0.0065000000 0.0065000000 0.0065000000 0.0065000000 0.0065000000 0.0065000000 0.0065000000 0.0065000000 0.0065000000 0.0065000000 0.0065000000 0.0065000000 0.0065000000 0.0065000000 0.0065000000 0.0065000000 0.0065000000 0.0065000000 0.0065000000 0.0065000000 0.0065000000 0.0065000000 0.0065000000 0.0065000000 0.0065000000 0.0065000000 0.0065000000 0.0065000000 0.0065000000 0.0065000000 0.0065000000 0.0065000000 0.0065000000 0.0065000000 0.0065000000 0.0065000000 0.0065000000 0.0065000000 0.0065000000 0.0065000000 0.0065000000 0.0065000000 0.0065000000 0.0065000000 0.0065000000 0.0065000000 0.0065000000 0.0065000000 0.0065000000 0.0065000000 0.0065000000 0.0065000000 0.0065000000 0.0065000000 0.0065000000 0.0065000000 0.0065000000 0.0065000000 0.0065000000 0.0065000000 0.0065000000 0.0065000000 0.0065000000 0.0065000000 0.0065000000 0.0065000000 0.0065000000 0.0065000000 0.0065000000 0.0065000000 0.0065000000 0.0065000000 0.0065000000 0.0065000000 0.0065000000 0.0065000000 0.0065000000 0.0065000000 0.0065000000 0.0065000000 0.0065000000 0.0065000000 0.0065000000 0.0065000000 0.0065000000 0.0065000000 0.0065000000 0.0065000000 0.0065000000 0.0065000000 0.0065000000 0.0065000000 0.0065000000 0.0065000000 0.0065000000 0.0065000000 0.0065000000 0.0065000000 0.0065000000 0.0065000000 0.0065000000 0.0065000000 0.0065000000 0.0065000000 0.0065000000 0.0065000000 0.0065000000 0.0065000000 0.0065000000 0.0065000000 0.0065000000 0.0065000000 0.0065000000 0.0065000000 0.0065000000 0.0065000000 0.0065000000 0.0065000000 0.0065000000 0.0065000000 0.0065000000 0.0065000000 0.0065000000 0.0065000000 0.0065000000 0.0065000000 0.0065000000 0.0065000000 0.0065000000 0.0065000000 0.0065000000 0.0065000000 0.0065000000 0.0065000000 0.0065000000 0.0065000000 0.0065000000 0.0065000000 0.0065000000 0.0065000000 0.0065000000 0.0065000000 0.0065000000 0.0065000000 0.0065000000 0.0065000000 0.0065000000 0.0065000000 0.0065000000 0.0065000000 0.0065000000 0.0065000000 0.0065000000 0.0065000000 0.0065000000 0.0065000000 0.0065000000 0.0065000000 0.0065000000 0.0065000000 0.0065000000 0.0065000000 0.0065000000 0.0065000000 0.0065000000 0.0065000000 0.0065000000 0.0065000000 0.0065000000 0.0065000000 0.0065000000 0.0065000000 0.0065000000 0.0065000000 0.0065000000 0.0065000000 0.0065000000 0.0065000000 0.0065000000 0.0065000000 0.0065000000 0.0065000000 0.0065000000 0.0065000000 0.0065000000 0.0065000000 0.0065000000 0.0065000000 0.0065000000 0.0065000000 0.0065000000 0.0065000000 0.0065000000 0.0065000000 0.0065000000 0.0065000000 0.0065000000 0.0065000000 0.0065000000 0.0065000000 0.0065000000 0.0065000000 0.0065000000 0.0065000000 0.0065000000 0.0065000000 0.0065000000 0.0065000000 0.0065000000 0.0065000000 0.0065000000 0.0065000000 0.0065000000 0.0065000000 0.0065000000 0.0065000000 0.0065000000 0.0065000000 0.0065000000 0.0065000000 0.0065000000 0.0065000000 0.0065000000 0.0065000000 0.0065000000 0.0065000000 0.0065000000 0.0065000000 0.0065000000 0.0065000000 0.0065000000 0.0065000000 0.0065000000 0.0065000000 0.0065000000 0.0065000000 0.0065000000 0.0065000000 0.0065000000 0.0065000000 0.0065000000 0.0065000000 0.0065000000 0.0065000000 0.0065000000 0.0065000000 0.0065000000 0.0065000000 0.0065000000 0.0065000000 0.0065000000 0.0065000000 0.0065000000 0.0065000000 0.0065000000 0.0065000000 0.0065000000 0.0065000000 0.0065000000 0.0065000000 0.0065000000 0.0065000000 0.0065000000 0.0065000000 0.0065000000 0.0065000000 0.0065000000 0.0065000000 0.0065000000 0.0065000000 0.0065000000 0.0065000000 0.0065000000 0.0065000000 0.0065000000 0.0065000000 0.0065000000 0.0065000000 0.0065000000 0.0065000000 0.0065000000 0.0065000000 0.0065000000 0.0065000000 0.0065000000 0.0065000000 0.0065000000 0.0065000000 0.0065000000 0.0065000000 0.0065000000 0.0065000000 0.0065000000 0.0065000000 0.0065000000 0.0065000000 0.0065000000 0.0065000000 0.0065000000 0.0065000000 0.0065000000 0.0065000000 0.0065000000 0.0065000000 0.0065000000 0.0065000000 0.0065000000 0.0065000000 0.0065000000 0.0065000000 0.0065000000 0.0065000000 0.0065000000 0.0065000000 0.0065000000 0.0065000000 0.0065000000 0.0065000000 0.0065000000 0.0065000000 0.0065000000 0.0065000000 0.0065000000 0.0065000000 0.0065000000 0.0065000000 0.0065000000 0.0065000000 0.0065000000 0.0065000000 0.0065000000 0.0065000000 0.0065000000 0.0065000000 0.0065000000 0.0065000000 0.0065000000 0.0065000000 0.0065000000 0.0065000000 0.0065000000 0.0065000000 0.0065000000 0.0065000000 0.0065000000 0.006500000