<?xml version="1.0"?>
<VTKFile type="UnstructuredGrid" version="0.1" byte_order="LittleEndian">
  <UnstructuredGrid>
    <FieldData>
      <DataArray type="Float32" Name="TIME"  NumberOfTuples="1" format="ascii"> 4.2470747933 </DataArray>
      <DataArray type="Int32"   Name="STEP"  NumberOfTuples="1" format="ascii"> 56950 </DataArray>
    </FieldData>
    <Piece NumberOfPoints="18081" NumberOfCells="18081">
      <Points>
        <DataArray type="Float32" NumberOfComponents="3" format="ascii">
 0.1284710993 0.0816960160 0.0128020953 0.0428470349 0.1001870684 0.0063667523 0.1034744781 0.0352063705 0.0090667987 0.0199317809 0.0170307191 0.0098667295 0.0572810869 0.0252317515 0.0100646170 0.0017900988 0.0238402372 0.0137437441 0.4883508982 0.0162288777 0.0167933469 0.4278417515 0.0422231630 0.0113464957 0.4990596763 0.0063765874 0.0115273756 0.4374554997 0.0317667458 0.0175066860 0.4531575080 0.0134815953 0.0265213901 0.4987820686 0.0427003494 0.0194493628 0.4855162691 0.0124069986 0.0348348731 0.3857063883 0.0235392019 0.0212164423 0.4667677952 0.0523923152 0.0300804487 0.4318491795 0.0182921603 0.0367056272 0.4967818676 0.0279920372 0.0278249084 0.3191364045 0.0826398587 0.0304513560 0.3957848814 0.0419716220 0.0320110850 0.2016307433 0.0015047702 0.0161372567 0.4829272273 0.0034562654 0.0415446748 0.1196214666 0.1016502066 0.0005846467 0.0437590333 0.0923683883 0.0190826625 0.0722630122 0.0416169108 0.0083110627 0.0573827788 0.0486984014 0.0011993002 0.0093265295 0.0579492230 0.0053176978 0.4504714906 0.0010221357 0.0232263708 0.4940737951 0.0074559861 0.0146973098 0.4593749405 0.0260505768 0.0076151635 0.4803577317 0.0234890928 0.0342210436 0.4912630333 0.0228691821 0.0060212977 0.4043317452 0.0706148332 0.0209111034 0.4986234510 0.0309782492 0.0323293992 0.4015996242 0.0663303777 0.0214724218 0.4897531291 0.0314259991 0.0143163736 0.3665505076 0.0299264112 0.0198385595 0.4712317538 0.0248701749 0.0083769377 0.3875504643 0.0388311163 0.0292622079 0.0867988060 0.0631256796 0.0196251524 0.0097704362 0.0684780866 0.0218484293 0.3917646255 0.0235039472 0.0146714578 0.2783778438 0.0961948942 0.0285718745 0.0855850941 0.0062431440 0.0082471815 0.0033820872 0.0979387743 0.0004125223 0.0953197478 0.0622012238 0.0008664727 0.2385973088 0.0671147876 0.0180698944 0.4240006484 0.0092466013 0.0008425786 0.3965372669 0.0403370343 0.0154580008 0.4925437953 0.0298072923 0.0006544014 0.4986565398 0.0773206015 0.0094472216 0.4968674613 0.0874079992 0.0277729305 0.4929698969 0.0137360505 0.0007480030 0.3214424374 0.0582454245 0.0305821644 0.4006211214 0.0746462386 0.0060846414 0.4565847576 0.0409939438 0.0318226065 0.4629342539 0.0516781447 0.0261274611 0.4423467858 0.0332217974 0.0009181074 0.4523587277 0.0623304558 0.0010048293 0.4310684889 0.0230186283 0.0281963088 0.0698242911 0.0806827212 0.0124033040 0.4070009052 0.0632363482 0.0344060289 0.4904418184 0.0707782874 0.0204722220 0.3990039381 0.0504404568 0.0186765285 0.0808348055 0.0546971573 0.0006662345 0.0310956070 0.0071065155 0.0058860264 0.1180392526 0.0578960391 0.0101950820 0.0552650499 0.0367433014 0.0059703256 0.4253084468 0.0189648536 0.0061821368 0.4696976299 0.0161745247 0.0050250789 0.4769613180 0.0117210266 0.0013303826 0.3546323585 0.0273789999 0.0228833156 0.3483756346 0.0022834277 0.0212834311 0.4875316669 0.0609463577 0.0079056832 0.4009502698 0.0824265278 0.0271087194 0.3498143094 0.0674232566 0.0052520620 0.4533937558 0.0185889791 0.0143088510 0.4289010090 0.0067068830 0.0071129025 0.2913539334 0.0392666313 0.0090165530 0.3583748227 0.0368784465 0.0259266560 0.3275129093 0.0199851170 0.0292398589 0.0908713106 0.0816850289 0.0137493075 0.1089916619 0.0990407359 0.0099980895 0.0608469396 0.0781313926 0.0195582658 0.4646113157 0.0927423510 0.0106313238 0.1708060657 0.0240457611 0.0027299247 0.1844961904 0.0122318151 0.0005514815 0.0587165704 0.0684234280 0.0077274053 0.3727610416 0.0008191493 0.0114649914 0.4103277578 0.0294348808 0.0011559642 0.4413274130 0.0010951284 0.0207882169 0.4693944596 0.0473972575 0.0062846538 0.4495075171 0.0148874869 0.0106355459 0.4415501910 0.0093731212 0.0067937803 0.4102914609 0.0324877371 0.0071276681 0.4766163569 0.0695602462 0.0055241051 0.3539014120 0.0775970102 0.0175742643 0.3295270414 0.0482901212 0.0160286898 0.4242706436 0.0745188887 0.0021686145 0.2795736082 0.0202582817 0.0157783518 0.3465569589 0.0617262661 0.0298639616 0.4536121988 0.0119086551 0.0413007385 0.3591350905 0.0439056123 0.0301289420 0.2922440090 0.0587259896 0.0222372668 0.4146248815 0.0105898572 0.0162302968 0.3117365503 0.0583175778 0.0297206865 0.1547934497 0.0114481974 0.0141613096 0.0667240660 0.0411458111 0.0047816688 0.0889318562 0.0620512273 0.0011222414 0.0070346747 0.0899313660 0.0068124119 0.4649010450 0.0084979771 0.0018657784 0.4889842499 0.0427554758 0.0008423969 0.3549357609 0.0508944301 0.0046891205 0.3707142112 0.0189311556 0.0194232183 0.2513938765 0.0152641201 0.0224975651 0.4195852765 0.0614744502 0.0033001048 0.4031862379 0.0489100934 0.0072448550 0.3629811042 0.0619774383 0.0053289266 0.3532009875 0.0694902675 0.0139072279 0.3048309802 0.0776948803 0.0296640551 0.3612683415 0.0533793734 0.0194200869 0.3429102869 0.0688428559 0.0196053455 0.3204878838 0.0029855628 0.0192863165 0.1503734675 0.0483746279 0.0136623959 0.3880505325 0.0038973616 0.0005744022 0.3853581163 0.0154117286 0.0286295805 0.4677070703 0.0653194472 0.0209733771 0.1554439212 0.0219243344 0.0004226534 0.1887369779 0.0018202644 0.0110029199 0.0637918467 0.0535951441 0.0008506762 0.4007556543 0.0292647424 0.0019113229 0.4197132038 0.0269309322 0.0011414489 0.4634400580 0.0038038867 0.0009596600 0.3461387604 0.0474081046 0.0007092848 0.4622300505 0.0474237497 0.0013026932 0.3728897947 0.0303089680 0.0073144863 0.3788532715 0.0396232306 0.0058572842 0.3761662658 0.0610645162 0.0103911862 0.4153640958 0.0615768963 0.0076871792 0.2840218708 0.0437702947 0.0215033339 0.4428332427 0.0768794175 0.0088413388 0.3204047290 0.0234611959 0.0052225332 0.4262740795 0.0626755746 0.0261374370 0.0300931972 0.0956945403 0.0100085297 0.1205089451 0.0151955355 0.0099539405 0.0621668077 0.0548486032 0.0184255845 0.0758203861 0.1012990467 0.0134435743 0.2910268228 0.1227050769 0.0288127101 0.1359774221 0.0059526463 0.0073905407 0.0423418680 0.0185112640 0.0006437032 0.0825400267 0.0126476072 0.0006953903 0.4151504483 0.0111866829 0.0009624719 0.3899452514 0.0308757109 0.0101567900 0.4224723922 0.0008220384 0.0196554962 0.4165947645 0.0543547458 0.0010306944 0.1528521807 0.0171995821 0.0250334536 0.4349819857 0.0520894857 0.0007977035 0.3755354147 0.0484579195 0.0008219334 0.4451949484 0.0922903878 0.0007110710 0.4229767124 0.0529838135 0.0221491255 0.2836125700 0.0569902973 0.0088777658 0.3685487101 0.0377823337 0.0193406734 0.3059146398 0.0346906522 0.0124653455 0.2710751181 0.0180604318 0.0286857682 0.2473607141 0.0623761100 0.0291074753 0.0940669801 0.0825863413 0.0189742334 0.3260765302 0.0044121092 0.0033600065 0.2371819453 0.0358094191 0.0221884044 0.0967186049 0.0463820881 0.0244217882 0.0277421936 0.0231690169 0.0058125123 0.2173619235 0.0303157811 0.0043089703 0.0983797879 0.0084450766 0.0010492042 0.4110862223 0.0022635085 0.0197613175 0.4585512791 0.0031922527 0.0212231012 0.4587270186 0.0006985648 0.0086540626 0.4186141056 0.0092991694 0.0121207366 0.3436655829 0.0222187979 0.0003689909 0.0125288017 0.0331480711 0.0068259375 0.0307675169 0.0831219998 0.0009402520 0.3542861786 0.0664467250 0.0082901302 0.4367215811 0.0761772624 0.0104870036 0.3788441218 0.0671427448 0.0009212316 0.3808502444 0.0744894445 0.0087059417 0.3955872827 0.0720650539 0.0276761704 0.4415628901 0.0983581204 0.0245732726 0.4416927026 0.0843647799 0.0392141263 0.0330786619 0.0821900896 0.0059458729 0.0302106657 0.0536808712 0.0185080156 0.4500726186 0.0380227731 0.0069485819 0.0803956110 0.0481846978 0.0149472423 0.1900846561 0.0192389446 0.0080191396 0.1852140454 0.0426288489 0.0092600893 0.1813558015 0.0372804546 0.0007051556 0.4210013219 0.0009544905 0.0083490453 0.4201584353 0.0162476615 0.0053777278 0.4307669959 0.0158288912 0.0012137457 0.4159902616 0.0389777431 0.0029413173 0.4023472240 0.0528333120 0.0016481065 0.4155198120 0.0334491812 0.0062202066 0.3457760684 0.0109179091 0.0008269788 0.4147266683 0.0732047691 0.0007439442 0.4330934918 0.0363804999 0.0224460118 0.3540655728 0.0466342580 0.0158229160 0.4537727650 0.0291924537 0.0014123698 0.2887669423 0.0851086308 0.0226293882 0.2651336010 0.0004277958 0.0008975472 0.2955790397 0.0687182703 0.0277423722 0.1902747367 0.0907120391 0.0261463700 0.3914404572 0.0624480150 0.0163386831 0.0116013125 0.0473018297 0.0236563315 0.4393126201 0.0492229269 0.0273746389 0.1623901434 0.0280451294 0.0007621861 0.1022805140 0.0222666026 0.0006324727 0.0534190905 0.0452994573 0.0004698813 0.3566088012 0.0355803951 0.0088894994 0.3162907670 0.0181337053 0.0098718853 0.4260921990 0.0091536183 0.0119471634 0.3334118753 0.0469900553 0.0009834739 0.4498392828 0.0916772664 0.0025121498 0.0868786019 0.0452306127 0.0155056414 0.4111996183 0.0210427020 0.0068437264 0.4699808090 0.0898171178 0.0008960287 0.4965086514 0.0804162515 0.0049829312 0.2894497915 0.0621906332 0.0006872343 0.4778347953 0.0698934886 0.0169189311 0.3293550222 0.0583845049 0.0159718674 0.2407699400 0.0606192979 0.0115601192 0.2441691966 0.0643201197 0.0214701673 0.0391304956 0.0374700397 0.0012775499 0.2453377939 0.0559206619 0.0046590253 0.3415549376 0.1061774327 0.0244457913 0.4472648717 0.0572133921 0.0204836191 0.1809084722 0.0294795654 0.0077963209 0.1928484350 0.0444398025 0.0079755008 0.1895332487 0.0117412683 0.0009589561 0.3813158182 0.0099473037 0.0103775264 0.0624058190 0.0640336245 0.0116634860 0.3305519834 0.0384987996 0.0056224910 0.3695641439 0.0490126536 0.0008065200 0.3315380238 0.0236884126 0.0009634146 0.4522703146 0.0672657106 0.0062860836 0.3131483951 0.0463487347 0.0047816223 0.4471413215 0.0445997964 0.0210671679 0.4455870812 0.0726719656 0.0228999432 0.4195059391 0.0431014
[...]
      <PointData Scalars="smoothLength">
        <DataArray type="Float32" Name="smoothLength" format="ascii">
 0.0065000000 0.0065000000 0.0065000000 0.0065000000 0.0065000000 0.0065000000 0.0065000000 0.0065000000 0.0065000000 0.0065000000 0.0065000000 0.0065000000 0.0065000000 0.0065000000 0.0065000000 0.0065000000 0.0065000000 0.0065000000 0.0065000000 0.0065000000 0.0065000000 0.0065000000 0.0065000000 0.0065000000 0.0065000000 0.0065000000 0.0065000000 0.0065000000 0.0065000000 0.0065000000 0.0065000000 0.0065000000 0.0065000000 0.0065000000 0.0065000000 0.0065000000 0.0065000000 0.0065000000 0.0065000000 0.0065000000 0.0065000000 0.0065000000 0.0065000000 0.0065000000 0.0065000000 0.0065000000 0.0065000000 0.0065000000 0.0065000000 0.0065000000 0.0065000000 0.0065000000 0.0065000000 0.0065000000 0.0065000000 0.0065000000 0.0065000000 0.0065000000 0.0065000000 0.0065000000 0.0065000000 0.0065000000 0.0065000000 0.0065000000 0.0065000000 0.0065000000 0.0065000000 0.0065000000 0.0065000000 0.0065000000 0.0065000000 0.0065000000 0.0065000000 0.0065000000 0.0065000000 0.0065000000 0.0065000000 0.0065000000 0.0065000000 0.0065000000 0.0065000000 0.0065000000 0.0065000000 0.0065000000 0.0065000000 0.0065000000 0.0065000000 0.0065000000 0.0065000000 0.0065000000 0.0065000000 0.0065000000 0.0065000000 0.0065000000 0.0065000000 0.0065000000 0.0065000000 0.0065000000 0.0065000000 0.0065000000 0.0065000000 0.0065000000 0.0065000000 0.0065000000 0.0065000000 0.0065000000 0.0065000000 0.0065000000 0.0065000000 0.0065000000 0.0065000000 0.0065000000 0.0065000000 0.0065000000 0.0065000000 0.0065000000 0.0065000000 0.0065000000 0.0065000000 0.0065000000 0.0065000000 0.0065000000 0.0065000000 0.0065000000 0.0065000000 0.0065000000 0.0065000000 0.0065000000 0.0065000000 0.0065000000 0.0065000000 0.0065000000 0.0065000000 0.0065000000 0.0065000000 0.0065000000 0.0065000000 0.0065000000 0.0065000000 0.0065000000 0.0065000000 0.0065000000 0.0065000000 0.0065000000 0.0065000000 0.0065000000 0.0065000000 0.0065000000 0.0065000000 0.0065000000 0.0065000000 0.0065000000 0.0065000000 0.0065000000 0.0065000000 0.0065000000 0.0065000000 0.0065000000 0.0065000000 0.0065000000 0.0065000000 0.0065000000 0.0065000000 0.0065000000 0.0065000000 0.0065000000 0.0065000000 0.0065000000 0.0065000000 0.0065000000 0.0065000000 0.0065000000 0.0065000000 0.0065000000 0.0065000000 0.0065000000 0.0065000000 0.0065000000 0.0065000000 0.0065000000 0.0065000000 0.0065000000 0.0065000000 0.0065000000 0.0065000000 0.0065000000 0.0065000000 0.0065000000 0.0065000000 0.0065000000 0.0065000000 0.0065000000 0.0065000000 0.0065000000 0.0065000000 0.0065000000 0.0065000000 0.0065000000 0.0065000000 0.0065000000 0.0065000000 0.0065000000 0.0065000000 0.0065000000 0.0065000000 0.0065000000 0.0065000000 0.0065000000 0.0065000000 0.0065000000 0.0065000000 0.0065000000 0.0065000000 0.0065000000 0.0065000000 0.0065000000 0.0065000000 0.0065000000 0.0065000000 0.0065000000 0.0065000000 0.0065000000 0.0065000000 0.0065000000 0.0065000000 0.0065000000 0.0065000000 0.0065000000 0.0065000000 0.0065000000 0.0065000000 0.0065000000 0.0065000000 0.0065000000 0.0065000000 0.0065000000 0.0065000000 0.0065000000 0.0065000000 0.0065000000 0.0065000000 0.0065000000 0.0065000000 0.0065000000 0.0065000000 0.0065000000 0.0065000000 0.0065000000 0.0065000000 0.0065000000 0.0065000000 0.0065000000 0.0065000000 0.0065000000 0.0065000000 0.0065000000 0.0065000000 0.0065000000 0.0065000000 0.0065000000 0.0065000000 0.0065000000 0.0065000000 0.0065000000 0.0065000000 0.0065000000 0.0065000000 0.0065000000 0.0065000000 0.0065000000 0.0065000000 0.0065000000 0.0065000000 0.0065000000 0.0065000000 0.0065000000 0.0065000000 0.0065000000 0.0065000000 0.0065000000 0.0065000000 0.0065000000 0.0065000000 0.0065000000 0.0065000000 0.0065000000 0.0065000000 0.0065000000 0.0065000000 0.0065000000 0.0065000000 0.0065000000 0.0065000000 0.0065000000 0.0065000000 0.0065000000 0.0065000000 0.0065000000 0.0065000000 0.0065000000 0.0065000000 0.0065000000 0.0065000000 0.0065000000 0.0065000000 0.0065000000 0.0065000000 0.0065000000 0.0065000000 0.0065000000 0.0065000000 0.0065000000 0.0065000000 0.0065000000 0.0065000000 0.0065000000 0.0065000000 0.0065000000 0.0065000000 0.0065000000 0.0065000000 0.0065000000 0.0065000000 0.0065000000 0.0065000000 0.0065000000 0.0065000000 0.0065000000 0.0065000000 0.0065000000 0.0065000000 0.0065000000 0.0065000000 0.0065000000 0.0065000000 0.0065000000 0.0065000000 0.0065000000 0.0065000000 0.0065000000 0.0065000000 0.0065000000 0.0065000000 0.0065000000 0.0065000000 0.0065000000 0.0065000000 0.0065000000 0.0065000000 0.0065000000 0.0065000000 0.0065000000 0.0065000000 0.0065000000 0.0065000000 0.0065000000 0.0065000000 0.0065000000 0.0065000000 0.0065000000 0.0065000000 0.0065000000 0.0065000000 0.0065000000 0.0065000000 0.0065000000 0.0065000000 0.0065000000 0.0065000000 0.0065000000 0.0065000000 0.0065000000 0.0065000000 0.0065000000 0.0065000000 0.0065000000 0.0065000000 0.0065000000 0.0065000000 0.0065000000 0.0065000000 0.0065000000 0.0065000000 0.0065000000 0.0065000000 0.0065000000 0.0065000000 0.0065000000 0.0065000000 0.0065000000 0.0065000000 0.0065000000 0.0065000000 0.0065000000 0.0065000000 0.0065000000 0.0065000000 0.0065000000 0.0065000000 0.0065000000 0.0065000000 0.0065000000 0.0065000000 0.0065000000 0.0065000000 0.0065000000 0.0065000000 0.0065000000 0.0065000000 0.0065000000 0.0065000000 0.0065000000 0.0065000000 0.0065000000 0.0065000000 0.0065000000 0.0065000000 0.0065000000 0.0065000000 0.0065000000 0.0065000000 0.0065000000 0.0065000000 0.0065000000 0.0065000000 0.0065000000 0.0065000000 0.0065000000 0.0065000000 0.0065000000 0.0065000000 0.0065000000 0.0065000000 0.0065000000 0.0065000000 0.0065000000 0.0065000000 0.0065000000 0.0065000000 0.0065000000 0.0065000000 0.0065000000 0.0065000000 0.0065000000 0.0065000000 0.0065000000 0.0065000000 0.0065000000 0.0065000000 0.0065000000 0.0065000000 0.0065000000 0.0065000000 0.0065000000 0.0065000000 0.0065000000 0.0065000000 0.0065000000 0.0065000000 0.0065000000 0.0065000000 0.0065000000 0.0065000000 0.0065000000 0.0065000000 0.0065000000 0.0065000000 0.0065000000 0.0065000000 0.0065000000 0.0065000000 0.0065000000 0.0065000000 0.0065000000 0.0065000000 0.0065000000 0.0065000000 0.0065000000 0.0065000000 0.0065000000 0.0065000000 0.0065000000 0.0065000000 0.0065000000 0.0065000000 0.0065000000 0.0065000000 0.0065000000 0.0065000000 0.0065000000 0.0065000000 0.0065000000 0.0065000000 0.0065000000 0.0065000000 0.0065000000 0.0065000000 0.0065000000 0.0065000000 0.0065000000 0.0065000000 0.0065000000 0.0065000000 0.0065000000 0.0065000000 0.0065000000 0.0065000000 0.0065000000 0.0065000000 0.0065000000 0.0065000000 0.0065000000 0.0065000000 0.0065000000 0.0065000000 0.0065000000 0.0065000000 0.0065000000 0.0065000000 0.0065000000 0.0065000000 0.0065000000 0.0065000000 0.0065000000 0.0065000000 0.0065000000 0.0065000000 0.0065000000 0.0065000000 0.0065000000 0.0065000000 0.0065000000 0.0065000000 0.0065000000 0.0065000000 0.0065000000 0.0065000000 0.0065000000 0.0065000000 0.0065000000 0.0065000000 0.0065000000 0.0065000000 0.0065000000 0.0065000000 0.0065000000 0.0065000000 0.0065000000 0.0065000000 0.0065000000 0.0065000000 0.0065000000 0.0065000000 0.0065000000 0.0065000000 0.0065000000 0.0065000000 0.0065000000 0.0065000000 0.0065000000 0.0065000000 0.0065000000 0.0065000000 0.0065000000 0.0065000000 0.0065000000 0.0065000000 0.0065000000 0.0065000000 0.0065000000 0.0065000000 0.0065000000 0.0065000000 0.0065000000 0.0065000000 0.0065000000 0.0065000000 0.0065000000 0.0065000000 0.0065000000 0.0065000000 0.0065000000 0.0065000000 0.0065000000 0.0065000000 0.0065000000 0.0065000000 0.0065000000 0.0065000000 0.0065000000 0.0065000000 0.0065000000 0.0065000000 0.0065000000 0.0065000000 0.0065000000 0.0065000000 0.0065000000 0.0065000000 0.0065000000 0.0065000000 0.0065000000 0.0065000000 0.0065000000 0.0065000000 0.0065000000 0.0065000000 0.0065000000 0.0065000000 0.0065000000 0.0065000000 0.0065000000 0.0065000000 0.0065000000 0.0065000000 0.0065000000 0.0065000000 0.0065000000 0.0065000000 0.0065000000 0.0065000000 0.0065000000 0.0065000000 0.0065000000 0.0065000000 0.0065000000 0.0065000000 0.0065000000 0.0065000000 0.0065000000 0.0065000000 0.0065000000 0.0065000000 0.0065000000 0.0065000000 0.0065000000 0.0065000000 0.0065000000 0.0065000000 0.0065000000 0.0065000000 0.0065000000 0.0065000000 0.0065000000 0.0065000000 0.0065000000 0.0065000000 0.0065000000 0.0065000000 0.0065000000 0.0065000000 0.0065000000 0.0065000000 0.0065000000 0.0065000000 0.0065000000 0.0065000000 0.0065000000 0.0065000000 0.0065000000 0.0065000000 0.0065000000 0.0065000000 0.0065000000 0.0065000000 0.0065000000 0.0065000000 0.0065000000 0.0065000000 0.0065000000 0.0065000000 0.0065000000 0.0065000000 0.0065000000 0.0065000000 0.0065000000 0.0065000000 0.0065000000 0.0065000000 0.0065000000 0.0065000000 0.0065000000 0.0065000000 0.0065000000 0.0065000000 0.0065000000 0.0065000000 0.0065000000 0.0065000000 0.0065000000 0.0065000000 0.0065000000 0.0065000000 0.0065000000 0.0065000000 0.0065000000 0.0065000000 0.0065000000 0.0065000000 0.0065000000 0.0065000000 0.0065000000 0.0065000000 0.0065000000 0.0065000000 0.0065000000 0.0065000000 0.0065000000 0.0065000000 0.0065000000 0.0065000000 0.0065000000 0.0065000000 0.0065000000 0.0065000000 0.0065000000 0.0065000000 0.0065000000 0.0065000000 0.0065000000 0.0065000000 0.0065000000 0.0065000000 0.0065000000 0.0065000000 0.0065000000 0.0065000000 0.0065000000 0.0065000000 0.0065000000 0.0065000000 0.0065000000 0.0065000000 0.0065000000 0.0065000000 0.0065000000 0.0065000000 0.0065000000 0.0065000000 0.0065000000 0.0065000000 0.0065000000 0.0065000000 0.0065000000 0.0065000000 0.0065000000 0.0065000000 0.0065000000 0.0065000000 0.0065000000 0.0065000000 0.0065000000 0.0065000000 0.0065000000 0.0065000000 0.0065000000 0.0065000000 0.0065000000 0.0065000000 0.0065000000 0.0065000000 0.0065000000 0.0065000000 0.0065000000 0.0065000000 0.0065000000 0.0065000000 0.0065000000 0.0065000000 0.0065000000 0.0065000000 0.0065000000 0.0065000000 0.0065000000 0.0065000000 0.0065000000 0.0065000000 0.0065000000 0.0065000000 0.0065000000 0.0065000000 0.0065000000 0.0065000000 0.0065000000 0.0065000000 0.0065000000 0.0065000000 0.0065000000 0.0065000000 0.0065000000 0.0065000000 0.0065000000 0.0065000000 0.0065000000 0.0065000000 0.0065000000 0.0065000000 0.0065000000 0.0065000000 0.0065000000 0.0065000000 0.0065000000 0.0065000000 0.0065000000 0.0065000000 0.0065000000 0.0065000000 0.0065000000 0.0065000000 0.0065000000 0.0065000000 0.0065000000 0.0065000000 0.0065000000 0.0065000000 0.0065000000 0.0065000000 0.0065000000 0.0065000000 0.0065000000 0.0065000000 0.0065000000 0.0065000000 0.0065000000 0.0065000000 0.0065000000 0.0065000000 0.0065000000 0.0065000000 0.0065000000 0.0065000000 0.0065000000 0.0065000000 0.0065000000 0.0065000000 0.0065000000 0.0065000000 0.0065000000 0.0065000000 0.0065000000 0.0065000000 0.0065000000 0.0065000000 0.0065000000 0.0065000000 0.0065000000 0.0065000000 0.0065000000 0.0065000000 0.0065000000 0.0065000000 0.0065000000 0.0065000000 0.0065000000 0.0065000000 0.0065000000 0.0065000000 0.0065000000 0.0065000000 0.0065000000 0.0065000000 0.0065000000 0.0065000000 0.0065000000 0.0065000000 0.0065000000 0.0065000000 0.0065000000 0.0065000000 0.0065000000 0.0065000000 0.0065000000 0.0065000000 0.0065000000 0.0065000000 0.0065000000 0.0065000000 0.0065000000 0.0065000000 0.0065000000 0.0065000000 0.0065000000 0.0065000000 0.0065000000 0.0065000000 0.0065000000 0.0065000000 0.0065000000 0.0065000000 0.0065000000 0.0065000000 0.0065000000 0.0065000000 0.0065000000 0.0065000000 0.0065000000 0.0065000000 0.0065000000 0.0065000000 0.0065000000 0.0065000000 0.0065000000 0.0065000000 0.0065000000 0.0065000000 0.0065000000 0.0065000000 0.0065000000 0.0065000000 0.0065000000 0.0065000000 0.0065000000 0.0065000000 0.0065000000 0.0065000000 0.0065000000 0.0065000000 0.0065000000 0.0065000000 0.0065000000 0.0065000000 0.0065000000 0.0065000000 0.0065000000 0.0065000000 0.0065000000 0.0065000000 0.0065000000 0.0065000000 0.0065000000 0.0065000000 0.0065000000 0.0065000000 0.0065000000 0.0065000000 0.0065000000 0.0065000000 0.0065000000 0.0065000000 0.0065000000 0.0065000000 0.0065000000 0.0065000000 0.0065000000 0.0065000000 0.0065000000 0.0065000000 0.0065000000 0.0065000000 0.0065000000 0.0065000000 0.0065000000 0.0065000000 0.0065000000 0.0065000000 0.0065000000 0.0065000000 0.0065000000 0.0065000000 0.0065000000 0.0065000000 0.0065000000 0.0065000000 0.0065000000 0.0065000000 0.0065000000 0.0065000000 0.0065000000 0.0065000000 0.0065000000 0.0065000000 0.0065000000 0.0065000000 0.0065000000 0.0065000000 0.0065000000 0.0065000000 0.0065000000 0.0065000000 0.0065000000 0.0065000000 0.0065000000 0.0065000000 0.0065000000 0.0065000000 0.0065000000 0.0065000000 0.0065000000 0.0065000000 0.0065000000 0.0065000000 0.0065000000 0.0065000000 0.0065000000 0.0065000000 0.0065000000 0.0065000000 0.0065000000 0.0065000000 0.0065000000 0.0065000000 0.0065000000 0.0065000000 0.0065000000 0.0065000000 0.0065000000 0.0065000000 0.0065000000 0.0065000000 0.0065000000 0.0065000000 0.0065000000 0.0065000000 0.0065000000 0.0065000000 0.0065000000 0.0065000000 0.0065000000 0.0065000000 0.0065000000 0.0065000000 0.0065000000 0.0065000000 0.0065000000 0.0065000000 0.0065000000 0.0065000000 0.0065000000 0.0065000000 0.0065000000 0.0065000000 0.0065000000 0.0065000000 0.0065000000 0.0065000000 0.0065000000 0.0065000000 0.0065000000 0.0065000000 0.0065000000 0.0065000000 0.0065000000 0.0065000000 0.0065000000 0.0065000000 0.0065000000 0.0065000000 0.0065000000 0.0065000000 0.0065000000 0.0065000000 0.0065000000 0.0065000000 0.0065000000 0.0065000000 0.0065000000 0.0065000000 0.0065000000 0.0065000000 0.0065000000 0.0065000000 0.0065000000 0.0065000000 0.0065000000 0.0065000000 0.0065000000 0.0065000000 0.0065000000 0.0065000000 0.0065000000 0.0065000000 0.0065000000 0.0065000000 0.0065000000 0.0065000000 0.0065000000 0.0065000000 0.0065000000 0.0065000000 0.0065000000 0.0065000000 0.0065000000 0.0065000000 0.0065000000 0.0065000000 0.0065000000 0.0065000000 0.0065000000 0.0065000000 0.0065000000 0.0065000000 0.0065000000 0.0065000000 0.0065000000 0.0065000000 0.0065000000 0.0065000000 0.0065000000 0.0065000000 0.0065000000 0.0065000000 0.0065000000 0.0065000000 0.0065000000 0.0065000000 0.0065000000 0.0065000000 0.0065000000 0.0065000000 0.0065000000 0.0065000000 0.0065000000 0.0065000000 0.0065000000 0.0065000000 0.0065000000 0.0065000000 0.0065000000 0.0065000000 0.0065000000 0.0065000000 0.0065000000 0.0065000000 0.0065000000 0.0065000000 0.0065000000 0.0065000000 0.0065000000 0.0065000000 0.0065000000 0.0065000000 0.0065000000 0.0065000000 0.0065000000 0.0065000000 0.0065000000 0.0065000000 0.0065000000 0.0065000000 0.0065000000 0.0065000000 0.0065000000 0.0065000000 0.0065000000 0.0065000000 0.0065000000 0.0065000000 0.0065000000 0.0065000000 0.0065000000 0.0065000000 0.0065000000 0.0065000000 0.0065000000 0.0065000000 0.0065000000 0.0065000000 0.0065000000 0.0065000000 0.0065000000 0.0065000000 0.0065000000 0.0065000000 0.0065000000 0.0065000000 0.0065000000 0.0065000000 0.0065000000 0.0065000000 0.0065000000 0.0065000000 0.0065000000 0.0065000000 0.0065000000 0.0065000000 0.0065000000 0.0065000000 0.0065000000 0.0065000000 0.0065000000 0.0065000000 0.0065000000 0.0065000000 0.0065000000 0.0065000000 0.0065000000 0.0065000000 0.0065000000 0.0065000000 0.0065000000 0.0065000000 0.0065000000 0.0065000000 0.0065000000 0.0065000000 0.0065000000 0.0065000000 0.0065000000 0.0065000000 0.0065000000 0.0065000000 0.0065000000 0.0065000000 0.0065000000 0.0065000000 0.0065000000 0.0065000000 0.0065000000 0.0065000000 0.0065000000 0.0065000000 0.0065000000 0.0065000000 0.0065000000 0.0065000000 0.0065000000 0.0065000000 0.0065000000 0.0065000000 0.0065000000 0.0065000000 0.0065000000 0.0065000000 0.0065000000 0.0065000000 0.0065000000 0.0065000000 0.0065000000 0.0065000000 0.0065000000 0.0065000000 0.0065000000 0.0065000000 0.0065000000 0.0065000000 0.0065000000 0.0065000000 0.0065000000 0.0065000000 0.0065000000 0.0065000000 0.0065000000 0.0065000000 0.0065000000 0.0065000000 0.0065000000 0.0065000000 0.0065000000 0.0065000000 0.0065000000 0.0065000000 0.0065000000 0.0065000000 0.0065000000 0.0065000000 0.0065000000 0.0065000000 0.0065000000 0.0065000000 0.0065000000 0.0065000000 0.0065000000 0.0065000000 0.0065000000 0.0065000000 0.0065000000 0.0065000000 0.0065000000 0.0065000000 0.0065000000 0.0065000000 0.0065000000 0.0065000000 0.0065000000 0.0065000000 0.0065000000 0.0065000000 0.0065000000 0.0065000000 0.0065000000 0.0065000000 0.0065000000 0.0065000000 0.0065000000 0.0065000000 0.0065000000 0.0065000000 0.0065000000 0.0065000000 0.0065000000 0.0065000000 0.0065000000 0.0065000000 0.0065000000 0.0065000000 0.0065000000 0.0065000000 0.0065000000 0.0065000000 0.0065000000 0.0065000000 0.0065000000 0.0065000000 0.0065000000 0.0065000000 0.0065000000 0.0065000000 0.0065000000 0.0065000000 0.0065000000 0.0065000000 0.0065000000 0.0065000000 0.0065000000 0.0065000000 0.0065000000 0.0065000000 0.0065000000 0.0065000000 0.0065000000 0.0065000000 0.0065000000 0.0065000000 0.0065000000 0.0065000000 0.0065000000 0.0065000000 0.0065000000 0.0065000000 0.0065000000 0.0065000000 0.0065000000 0.0065000000 0.0065000000 0.0065000000 0.0065000000 0.0065000000 0.0065000000 0.0065000000 0.0065000000 0.0065000000 0.0065000000 0.0065000000 0.0065000000 0.0065000000 0.0065000000 0.0065000000 0.0065000000 0.0065000000 0.0065000000 0.0065000000 0.0065000000 0.0065000000 0.0065000000 0.0065000000 0.0065000000 0.0065000000 0.0065000000 0.0065000000 0.0065000000 0.0065000000 0.0065000000 0.0065000000 0.0065000000 0.0065000000 0.0065000000 0.0065000000 0.0065000000 0.0065000000 0.0065000000 0.0065000000 0.0065000000 0.0065000000 0.0065000000 0.0065000000 0.0065000000 0.0065000000 0.0065000000 0.0065000000 0.0065000000 0.0065000000 0.0065000000 0.0065000000 0.0065000000 0.0065000000 0.0065000000 0.0065000000 0.0065000000 0.0065000000 0.0065000000 0.0065000000 0.0065000000 0.0065000000 0.0065000000 0.0065000000 0.0065000000 0.0065000000 0.0065000000 0.0065000000 0.0065000000 0.0065000000 0.0065000000 0.0065000000 0.0065000000 0.0065000000 0.0065000000 0.0065000000 0.0065000000 0.0065000000 0.0065000000 0.0065000000 0.0065000000 0.0065000000 0.0065000000 0.0065000000 0.0065000000 0.0065000000 0.0065000000 0.0065000000 0.0065000000 0.0065000000 0.0065000000 0.0065000000 0.0065000000 0.0065000000 0.0065000000 0.0065000000 0.0065000000 0.0065000000 0.0065000000 0.0065000000 0.0065000000 0.0065000000 0.0065000000 0.0065000000 0.0065000000 0.0065000000 0.0065000000 0.0065000000 0.0065000000 0.0065000000 0.0065000000 0.0065000000 0.0065000000 0.0065000000 0.0065000000 0.0065000000 0.0065000000 0.0065000000 0.0065000000 0.0065000000 0.0065000000 0.0065000000 0.0065000000 0.0065000000 0.0065000000 0.0065000000 0.0065000000 0.0065000000 0.0065000000 0.0065000000 0.0065000000 0.0065000000 0.0065000000 0.0065000000 0.0065000000 0.0065000000 0.0065000000 0.0065000000 0.0065000000 0.0065000000 0.0065000000 0.0065000000 0.0065000000 0.0065000000 0.0065000000 0.0065000000 0.0065000000 0.0065000000 0.0065000000 0.0065000000 0.0065000000 0.0065000000 0.0065000000 0.0065000000 0.0065000000 0.0065000000 0.0065000000 0.0065000000 0.0065000000 0.0065000000 0.0065000000 0.0065000000 0.0065000000 0.0065000000 0.0065000000 0.0065000000 0.0065000000 0.0065000000 0.0065000000 0.0065000000 0.0065000000 0.0065000000 0.0065000000 0.0065000000 0.0065000000 0.0065000000 0.0065000000 0.0065000000 0.0065000000 0.0065000000 0.0065000000 0.0065000000 0.0065000000 0.0065000000 0.0065000000 0.0065000000 0.0065000000 0.0065000000 0.0065000000 0.0065000000 0.0065000000 0.0065000000 0.0065000000 0.0065000000 0.0065000000 0.0065000000 0.0065000000 0.0065000000 0.006500000