<?xml version="1.0"?>
<VTKFile type="UnstructuredGrid" version="0.1" byte_order="LittleEndian">
  <UnstructuredGrid>
    <FieldData>
      <DataArray type="Float32" Name="TIME"  NumberOfTuples="1" format="ascii"> 1.8986922605 </DataArray>
      <DataArray type="Int32"   Name="STEP"  NumberOfTuples="1" format="ascii"> 25460 </DataArray>
    </FieldData>
    <Piece NumberOfPoints="18081" NumberOfCells="18081">
      <Points>
        <DataArray type="Float32" NumberOfComponents="3" format="ascii">
 0.0183812122 0.0721862595 0.0000395856 0.0001453962 0.0391510068 0.0016965852 0.0558247069 0.0736384394 0.0023630975 0.1085052656 0.0192208185 0.0139281012 0.0745305670 0.0599051542 0.0071935626 0.0281824876 -0.0009488797 0.0198987576 0.3276773145 0.0095956987 0.0204179489 0.3288878333 0.0162608716 0.0096391560 0.4155059597 0.0019150717 0.0052088386 0.3502192639 0.0098864879 0.0148876743 0.3994880321 0.0240114785 0.0089133463 0.4159356005 0.0126764027 0.0076868702 0.3837184432 0.0094449412 0.0098510283 0.3277199236 0.0482332803 0.0170500323 0.3832661327 0.0473105325 0.0146876522 0.3697194124 0.0198795437 0.0203275894 0.4922713370 0.0045621878 0.0045843141 0.3066829823 0.0897801330 0.0285392256 0.3640188859 0.0156842929 0.0234369017 0.1641515374 0.0223072103 0.0136372457 0.4220981989 0.0089366411 0.0086701085 0.0363579522 0.0901519380 0.0012162229 0.0121190206 0.0273773405 0.0187010170 0.0637493843 0.0343320668 0.0066250792 0.0768599128 0.0325266810 -0.0001091403 0.0535153371 0.0046731860 0.0107681172 0.3102387624 0.0079198860 0.0062150847 0.3917507669 -0.0016380059 0.0039087297 0.3596382260 0.0082883738 -0.0008644075 0.3758066744 0.0178615231 0.0215483459 0.4092588209 0.0076826741 0.0042185180 0.3413304099 0.0458426527 0.0179619683 0.4370074504 0.0225433468 0.0061825622 0.3448092131 0.0454796676 0.0146811454 0.3842782982 0.0021349466 0.0063472764 0.3401088253 0.0330349434 0.0124723069 0.3690736387 0.0130927286 0.0190251051 0.3727703083 0.0392488922 0.0175476102 0.0536517796 0.0402653334 0.0133423978 0.0425379469 0.0065058753 0.0207736670 0.2669037387 0.0156798925 0.0180907480 0.3197758240 0.0954441633 0.0296334406 0.0963703692 0.0447904783 0.0092424185 0.0018439438 0.0283217056 -0.0002884908 0.0447274171 0.0530780673 0.0001649766 0.1555292937 0.0762080015 0.0183145385 0.2558401219 -0.0002399702 0.0168084079 0.3258311913 0.0215785096 0.0186238877 0.4192714436 -0.0010333884 -0.0006095318 0.5002089427 0.0365828383 0.0033804094 0.4936619506 0.0535988645 0.0018084099 0.3939111828 0.0064575873 -0.0007010079 0.3625418578 0.0470091286 0.0211189744 0.3588632347 0.0294151473 0.0071496474 0.3916043313 0.0630449425 0.0203751824 0.4512795678 0.0560273615 -0.0007593565 0.2981294103 0.0198832627 0.0079091916 0.3434498339 0.0135189873 0.0024353412 0.3759907816 0.0213521769 0.0195630806 0.0158762115 0.0449478519 0.0139937932 0.3602537330 0.0619896797 0.0194867691 0.4993552998 0.0397158335 0.0057123289 0.3551974350 0.0388132174 0.0108154324 0.0602078500 0.0443523556 0.0003799419 0.0950324136 0.0305293031 0.0134594079 0.0408705331 0.0486375417 0.0000896914 0.0728557475 0.0386484367 0.0054855907 0.2644375761 0.0075811937 0.0165585661 0.3103110736 0.0041094233 0.0153155021 0.3330655159 -0.0011039821 0.0045406063 0.2587380080 0.0212901080 0.0231340735 0.1988276234 0.0022724957 0.0232852125 0.4819651014 0.0079286147 -0.0008551002 0.3412475140 0.0526046567 0.0097058971 0.3312294389 0.0586621939 0.0121849657 0.3858737923 0.0174872649 0.0052144982 0.2719325629 0.0069792248 0.0057501265 0.2664888751 0.0480980705 0.0206105947 0.3382802849 0.0379186319 0.0206750196 0.2128959225 0.0220680309 0.0230564568 0.0115926891 0.0496917522 0.0132512819 0.0076423460 0.0911005352 0.0001382505 0.0357623227 0.0314019761 0.0245410306 0.4615762108 0.0925291384 0.0002801263 0.1473131595 0.0364138031 0.0007594043 0.1678632727 0.0224181759 0.0023419735 0.0500772797 0.0154249931 0.0000559243 0.1961511370 0.0005821739 0.0138840196 0.2470299963 0.0009767333 0.0003738041 0.3129434748 0.0064742220 0.0119315477 0.4602296562 0.0276460798 -0.0005444784 0.3069963645 0.0122954628 0.0140636542 0.2740332114 0.0056345311 0.0169071814 0.2965832174 0.0313471961 0.0117935713 0.4547130723 0.0662917700 0.0005052492 0.3554898418 0.0553760516 0.0092304053 0.3242458594 0.0501510425 0.0192578851 0.3159686767 0.0311944618 0.0114489732 0.2553724498 0.0476084477 0.0214563756 0.3472045043 0.0541740239 0.0239149187 0.3528579718 0.0114024206 0.0233033799 0.3283851386 0.0284824424 0.0248429654 0.3066161132 0.0773387491 0.0303510631 0.2983889585 0.0211939459 0.0284697823 0.3482739515 0.0526392948 0.0226613301 0.1337086290 0.0368750914 0.0076969176 0.0727707450 0.0351958562 0.0006674650 0.0499784977 0.0399606470 -0.0001753469 0.0070288349 0.0108556871 0.0080826860 0.2926914000 0.0214192173 0.0195667413 0.4296640935 0.0094947448 0.0000996378 0.2827893088 0.0335721291 0.0157152983 0.2966863695 0.0364634353 0.0275570199 0.2554723797 0.0587861834 0.0271143803 0.2939132859 0.0170461585 0.0058146116 0.3814044697 0.0286237540 0.0046783695 0.3304820208 0.0469719700 0.0081672957 0.3703852482 0.0577445617 0.0034961853 0.4330755739 0.0738113073 0.0089637578 0.3782922470 0.0535668945 0.0118190942 0.3432187387 0.0404952833 0.0096854009 0.1949816602 0.0238133277 0.0221294617 0.0467448254 0.0803515783 0.0107854038 0.2079791285 0.0137473085 0.0198998968 0.3280220780 0.0106986197 0.0266535669 0.4034221288 0.0425478914 0.0201396367 0.1570088376 0.0311383408 -0.0001263011 0.1751675012 0.0237795072 0.0040045245 0.0719117344 0.0250145710 0.0001078358 0.2464978195 0.0058968912 0.0001180405 0.2661549309 0.0083214964 0.0103732487 0.3104005138 -0.0007523322 0.0003686374 0.2654180022 0.0146119407 -0.0002593995 0.3571291929 0.0132765545 0.0014509805 0.2380608067 0.0120191091 0.0113473540 0.2750751071 0.0199786139 0.0007682810 0.3185391923 0.0495992108 0.0075147038 0.3967601522 0.0303515966 0.0004704133 0.2911654827 0.0583017297 0.0161391942 0.4078064087 0.0724731321 0.0013895050 0.2552717241 0.0352929220 -0.0003106948 0.3403434783 0.0648781460 0.0265368009 0.0088609924 0.0179342925 0.0122567226 0.0711949910 0.0559494295 0.0097741571 0.0650385624 0.0473603901 0.0141462189 0.0012013640 0.0774046058 0.0175527238 0.3359258858 0.0935827392 0.0280107000 0.1187204620 0.0349052697 0.0077214882 0.1082451220 0.0283798483 0.0003511281 0.1353264027 0.0120848082 -0.0000549795 0.2249462903 -0.0001742754 0.0025478029 0.2577356928 -0.0000098859 0.0121025828 0.2790427789 0.0006667349 0.0050358923 0.3001903955 0.0163687828 -0.0004602123 0.2330953980 0.0520199326 0.0252858365 0.3115278662 0.0184339440 0.0034533204 0.2568160455 0.0099986685 0.0043432708 0.3386759494 0.0390019875 0.0008423134 0.3989295980 0.0845233310 0.0040560495 0.2727824884 0.0539576777 0.0132081433 0.3356768467 0.0481387050 0.0157815432 0.2902054994 0.0475249783 0.0165782190 0.2324976008 0.0451232943 0.0249345409 0.2242490446 0.0623178345 0.0230063722 0.0202226223 0.0448756806 0.0108541954 0.2192962029 0.0405122094 0.0207702133 0.2145083946 0.0472948282 0.0238673701 0.0368375582 0.0458862186 0.0193009065 0.0974660554 0.0357998553 0.0015335017 0.1741012893 0.0513357140 0.0084328796 0.1396315128 0.0159468164 0.0001466541 0.2222654273 -0.0006489791 0.0158209796 0.2997020264 0.0011730917 0.0175332308 0.2990141121 0.0031617219 0.0121441589 0.2852008928 0.0082091289 0.0051121565 0.2486077261 0.0267820034 0.0057564139 0.0921726842 0.0129440133 0.0125158208 0.0164560106 0.0126570091 -0.0002108174 0.3469716489 0.0333441020 0.0025193907 0.3418113567 0.0412746312 0.0015740457 0.3126425461 0.0540498344 0.0000185840 0.3605872929 0.0572084907 0.0128835598 0.3428820788 0.0621728703 0.0254792680 0.3506192639 0.0660094290 0.0146619847 0.3514576945 0.0955375309 0.0254614381 0.0315555202 0.0132143217 0.0082844298 0.0679211043 0.0353768160 0.0126841705 0.3818878594 0.0274758784 0.0149246567 0.0421053170 0.0474427827 0.0170230633 0.1513859330 0.0399246880 0.0021419122 0.1414400482 0.0568584264 0.0075663789 0.1744031115 0.0574971585 0.0005596849 0.2097103173 -0.0005545214 0.0005321638 0.2857603683 0.0266525547 0.0133157383 0.2708523176 -0.0004980822 0.0004704213 0.2777293993 0.0062537292 0.0051965226 0.2975906627 0.0223255126 0.0002879704 0.2883238641 0.0181872755 0.0071772440 0.2050121686 0.0261926270 -0.0000436462 0.3287170595 0.0290323560 0.0056453520 0.4353229686 0.0559530660 0.0057929353 0.3735181566 0.0562839690 0.0099218468 0.3133471296 0.0156840041 0.0103061965 0.2808891772 0.0745912063 0.0290734384 0.1939199650 0.0256672616 0.0002404496 0.3108723616 0.0811374761 0.0241279645 0.2364904117 0.0823577404 0.0230187581 0.3584034295 0.0573618424 0.0034377212 0.0708009696 0.0093000323 0.0209874921 0.4368945154 0.0708877240 0.0053388927 0.1545173757 0.0427654437 0.0013250012 0.1135791797 0.0585469505 0.0003988880 0.0903354518 0.0253222672 0.0000304555 0.2432912497 0.0124665697 0.0108514262 0.2419858619 0.0269198737 0.0160008593 0.2860155059 -0.0007140377 0.0187732061 0.2758435887 0.0250292686 -0.0001721775 0.3400429335 0.0293539095 -0.0009360700 0.0397296743 0.0455243899 0.0103454497 0.2195436394 -0.0002948757 -0.0003755060 0.4279518352 0.0630068107 0.0002194443 0.4908231643 0.0851249754 0.0031929164 0.2823036253 0.0645382636 0.0078465051 0.4309545398 0.0704887719 0.0078236587 0.3170568586 0.0617963170 0.0153659819 0.1893184594 0.0642136241 0.0171235749 0.1900775954 0.0674497592 0.0201834580 0.1082091964 0.0141958895 0.0009748740 0.2151114771 0.0685312259 0.0147018922 0.3671003241 0.0865835529 0.0188847432 0.4240378328 0.0813332870 0.0008227031 0.1462055987 0.0412048628 -0.0000605351 0.1305818957 0.0653695201 0.0088608881 0.1709336421 0.0205292263 -0.0000692537 0.2064705317 -0.0005327414 0.0182317434 0.0537116848 0.0201102259 0.0071196595 0.2582442107 0.0215383463 0.0021726689 0.2760904162 0.0143447956 0.0010656911 0.2445658893 0.0287591374 0.0111001231 0.3798311063 0.0195195292 0.0007818729 0.2719466648 0.0453640483 0.0135617846 0.4177548852 0.0386500166 0.0081129015 0.3456240406 0.0804558423 
[...]
      <PointData Scalars="smoothLength">
        <DataArray type="Float32" Name="smoothLength" format="ascii">
 0.0065000000 0.0065000000 0.0065000000 0.0065000000 0.0065000000 0.0065000000 0.0065000000 0.0065000000 0.0065000000 0.0065000000 0.0065000000 0.0065000000 0.0065000000 0.0065000000 0.0065000000 0.0065000000 0.0065000000 0.0065000000 0.0065000000 0.0065000000 0.0065000000 0.0065000000 0.0065000000 0.0065000000 0.0065000000 0.0065000000 0.0065000000 0.0065000000 0.0065000000 0.0065000000 0.0065000000 0.0065000000 0.0065000000 0.0065000000 0.0065000000 0.0065000000 0.0065000000 0.0065000000 0.0065000000 0.0065000000 0.0065000000 0.0065000000 0.0065000000 0.0065000000 0.0065000000 0.0065000000 0.0065000000 0.0065000000 0.0065000000 0.0065000000 0.0065000000 0.0065000000 0.0065000000 0.0065000000 0.0065000000 0.0065000000 0.0065000000 0.0065000000 0.0065000000 0.0065000000 0.0065000000 0.0065000000 0.0065000000 0.0065000000 0.0065000000 0.0065000000 0.0065000000 0.0065000000 0.0065000000 0.0065000000 0.0065000000 0.0065000000 0.0065000000 0.0065000000 0.0065000000 0.0065000000 0.0065000000 0.0065000000 0.0065000000 0.0065000000 0.0065000000 0.0065000000 0.0065000000 0.0065000000 0.0065000000 0.0065000000 0.0065000000 0.0065000000 0.0065000000 0.0065000000 0.0065000000 0.0065000000 0.0065000000 0.0065000000 0.0065000000 0.0065000000 0.0065000000 0.0065000000 0.0065000000 0.0065000000 0.0065000000 0.0065000000 0.0065000000 0.0065000000 0.0065000000 0.0065000000 0.0065000000 0.0065000000 0.0065000000 0.0065000000 0.0065000000 0.0065000000 0.0065000000 0.0065000000 0.0065000000 0.0065000000 0.0065000000 0.0065000000 0.0065000000 0.0065000000 0.0065000000 0.0065000000 0.0065000000 0.0065000000 0.0065000000 0.0065000000 0.0065000000 0.0065000000 0.0065000000 0.0065000000 0.0065000000 0.0065000000 0.0065000000 0.0065000000 0.0065000000 0.0065000000 0.0065000000 0.0065000000 0.0065000000 0.0065000000 0.0065000000 0.0065000000 0.0065000000 0.0065000000 0.0065000000 0.0065000000 0.0065000000 0.0065000000 0.0065000000 0.0065000000 0.0065000000 0.0065000000 0.0065000000 0.0065000000 0.0065000000 0.0065000000 0.0065000000 0.0065000000 0.0065000000 0.0065000000 0.0065000000 0.0065000000 0.0065000000 0.0065000000 0.0065000000 0.0065000000 0.0065000000 0.0065000000 0.0065000000 0.0065000000 0.0065000000 0.0065000000 0.0065000000 0.0065000000 0.0065000000 0.0065000000 0.0065000000 0.0065000000 0.0065000000 0.0065000000 0.0065000000 0.0065000000 0.0065000000 0.0065000000 0.0065000000 0.0065000000 0.0065000000 0.0065000000 0.0065000000 0.0065000000 0.0065000000 0.0065000000 0.0065000000 0.0065000000 0.0065000000 0.0065000000 0.0065000000 0.0065000000 0.0065000000 0.0065000000 0.0065000000 0.0065000000 0.0065000000 0.0065000000 0.0065000000 0.0065000000 0.0065000000 0.0065000000 0.0065000000 0.0065000000 0.0065000000 0.0065000000 0.0065000000 0.0065000000 0.0065000000 0.0065000000 0.0065000000 0.0065000000 0.0065000000 0.0065000000 0.0065000000 0.0065000000 0.0065000000 0.0065000000 0.0065000000 0.0065000000 0.0065000000 0.0065000000 0.0065000000 0.0065000000 0.0065000000 0.0065000000 0.0065000000 0.0065000000 0.0065000000 0.0065000000 0.0065000000 0.0065000000 0.0065000000 0.0065000000 0.0065000000 0.0065000000 0.0065000000 0.0065000000 0.0065000000 0.0065000000 0.0065000000 0.0065000000 0.0065000000 0.0065000000 0.0065000000 0.0065000000 0.0065000000 0.0065000000 0.0065000000 0.0065000000 0.0065000000 0.0065000000 0.0065000000 0.0065000000 0.0065000000 0.0065000000 0.0065000000 0.0065000000 0.0065000000 0.0065000000 0.0065000000 0.0065000000 0.0065000000 0.0065000000 0.0065000000 0.0065000000 0.0065000000 0.0065000000 0.0065000000 0.0065000000 0.0065000000 0.0065000000 0.0065000000 0.0065000000 0.0065000000 0.0065000000 0.0065000000 0.0065000000 0.0065000000 0.0065000000 0.0065000000 0.0065000000 0.0065000000 0.0065000000 0.0065000000 0.0065000000 0.0065000000 0.0065000000 0.0065000000 0.0065000000 0.0065000000 0.0065000000 0.0065000000 0.0065000000 0.0065000000 0.0065000000 0.0065000000 0.0065000000 0.0065000000 0.0065000000 0.0065000000 0.0065000000 0.0065000000 0.0065000000 0.0065000000 0.0065000000 0.0065000000 0.0065000000 0.0065000000 0.0065000000 0.0065000000 0.0065000000 0.0065000000 0.0065000000 0.0065000000 0.0065000000 0.0065000000 0.0065000000 0.0065000000 0.0065000000 0.0065000000 0.0065000000 0.0065000000 0.0065000000 0.0065000000 0.0065000000 0.0065000000 0.0065000000 0.0065000000 0.0065000000 0.0065000000 0.0065000000 0.0065000000 0.0065000000 0.0065000000 0.0065000000 0.0065000000 0.0065000000 0.0065000000 0.0065000000 0.0065000000 0.0065000000 0.0065000000 0.0065000000 0.0065000000 0.0065000000 0.0065000000 0.0065000000 0.0065000000 0.0065000000 0.0065000000 0.0065000000 0.0065000000 0.0065000000 0.0065000000 0.0065000000 0.0065000000 0.0065000000 0.0065000000 0.0065000000 0.0065000000 0.0065000000 0.0065000000 0.0065000000 0.0065000000 0.0065000000 0.0065000000 0.0065000000 0.0065000000 0.0065000000 0.0065000000 0.0065000000 0.0065000000 0.0065000000 0.0065000000 0.0065000000 0.0065000000 0.0065000000 0.0065000000 0.0065000000 0.0065000000 0.0065000000 0.0065000000 0.0065000000 0.0065000000 0.0065000000 0.0065000000 0.0065000000 0.0065000000 0.0065000000 0.0065000000 0.0065000000 0.0065000000 0.0065000000 0.0065000000 0.0065000000 0.0065000000 0.0065000000 0.0065000000 0.0065000000 0.0065000000 0.0065000000 0.0065000000 0.0065000000 0.0065000000 0.0065000000 0.0065000000 0.0065000000 0.0065000000 0.0065000000 0.0065000000 0.0065000000 0.0065000000 0.0065000000 0.0065000000 0.0065000000 0.0065000000 0.0065000000 0.0065000000 0.0065000000 0.0065000000 0.0065000000 0.0065000000 0.0065000000 0.0065000000 0.0065000000 0.0065000000 0.0065000000 0.0065000000 0.0065000000 0.0065000000 0.0065000000 0.0065000000 0.0065000000 0.0065000000 0.0065000000 0.0065000000 0.0065000000 0.0065000000 0.0065000000 0.0065000000 0.0065000000 0.0065000000 0.0065000000 0.0065000000 0.0065000000 0.0065000000 0.0065000000 0.0065000000 0.0065000000 0.0065000000 0.0065000000 0.0065000000 0.0065000000 0.0065000000 0.0065000000 0.0065000000 0.0065000000 0.0065000000 0.0065000000 0.0065000000 0.0065000000 0.0065000000 0.0065000000 0.0065000000 0.0065000000 0.0065000000 0.0065000000 0.0065000000 0.0065000000 0.0065000000 0.0065000000 0.0065000000 0.0065000000 0.0065000000 0.0065000000 0.0065000000 0.0065000000 0.0065000000 0.0065000000 0.0065000000 0.0065000000 0.0065000000 0.0065000000 0.0065000000 0.0065000000 0.0065000000 0.0065000000 0.0065000000 0.0065000000 0.0065000000 0.0065000000 0.0065000000 0.0065000000 0.0065000000 0.0065000000 0.0065000000 0.0065000000 0.0065000000 0.0065000000 0.0065000000 0.0065000000 0.0065000000 0.0065000000 0.0065000000 0.0065000000 0.0065000000 0.0065000000 0.0065000000 0.0065000000 0.0065000000 0.0065000000 0.0065000000 0.0065000000 0.0065000000 0.0065000000 0.0065000000 0.0065000000 0.0065000000 0.0065000000 0.0065000000 0.0065000000 0.0065000000 0.0065000000 0.0065000000 0.0065000000 0.0065000000 0.0065000000 0.0065000000 0.0065000000 0.0065000000 0.0065000000 0.0065000000 0.0065000000 0.0065000000 0.0065000000 0.0065000000 0.0065000000 0.0065000000 0.0065000000 0.0065000000 0.0065000000 0.0065000000 0.0065000000 0.0065000000 0.0065000000 0.0065000000 0.0065000000 0.0065000000 0.0065000000 0.0065000000 0.0065000000 0.0065000000 0.0065000000 0.0065000000 0.0065000000 0.0065000000 0.0065000000 0.0065000000 0.0065000000 0.0065000000 0.0065000000 0.0065000000 0.0065000000 0.0065000000 0.0065000000 0.0065000000 0.0065000000 0.0065000000 0.0065000000 0.0065000000 0.0065000000 0.0065000000 0.0065000000 0.0065000000 0.0065000000 0.0065000000 0.0065000000 0.0065000000 0.0065000000 0.0065000000 0.0065000000 0.0065000000 0.0065000000 0.0065000000 0.0065000000 0.0065000000 0.0065000000 0.0065000000 0.0065000000 0.0065000000 0.0065000000 0.0065000000 0.0065000000 0.0065000000 0.0065000000 0.0065000000 0.0065000000 0.0065000000 0.0065000000 0.0065000000 0.0065000000 0.0065000000 0.0065000000 0.0065000000 0.0065000000 0.0065000000 0.0065000000 0.0065000000 0.0065000000 0.0065000000 0.0065000000 0.0065000000 0.0065000000 0.0065000000 0.0065000000 0.0065000000 0.0065000000 0.0065000000 0.0065000000 0.0065000000 0.0065000000 0.0065000000 0.0065000000 0.0065000000 0.0065000000 0.0065000000 0.0065000000 0.0065000000 0.0065000000 0.0065000000 0.0065000000 0.0065000000 0.0065000000 0.0065000000 0.0065000000 0.0065000000 0.0065000000 0.0065000000 0.0065000000 0.0065000000 0.0065000000 0.0065000000 0.0065000000 0.0065000000 0.0065000000 0.0065000000 0.0065000000 0.0065000000 0.0065000000 0.0065000000 0.0065000000 0.0065000000 0.0065000000 0.0065000000 0.0065000000 0.0065000000 0.0065000000 0.0065000000 0.0065000000 0.0065000000 0.0065000000 0.0065000000 0.0065000000 0.0065000000 0.0065000000 0.0065000000 0.0065000000 0.0065000000 0.0065000000 0.0065000000 0.0065000000 0.0065000000 0.0065000000 0.0065000000 0.0065000000 0.0065000000 0.0065000000 0.0065000000 0.0065000000 0.0065000000 0.0065000000 0.0065000000 0.0065000000 0.0065000000 0.0065000000 0.0065000000 0.0065000000 0.0065000000 0.0065000000 0.0065000000 0.0065000000 0.0065000000 0.0065000000 0.0065000000 0.0065000000 0.0065000000 0.0065000000 0.0065000000 0.0065000000 0.0065000000 0.0065000000 0.0065000000 0.0065000000 0.0065000000 0.0065000000 0.0065000000 0.0065000000 0.0065000000 0.0065000000 0.0065000000 0.0065000000 0.0065000000 0.0065000000 0.0065000000 0.0065000000 0.0065000000 0.0065000000 0.0065000000 0.0065000000 0.0065000000 0.0065000000 0.0065000000 0.0065000000 0.0065000000 0.0065000000 0.0065000000 0.0065000000 0.0065000000 0.0065000000 0.0065000000 0.0065000000 0.0065000000 0.0065000000 0.0065000000 0.0065000000 0.0065000000 0.0065000000 0.0065000000 0.0065000000 0.0065000000 0.0065000000 0.0065000000 0.0065000000 0.0065000000 0.0065000000 0.0065000000 0.0065000000 0.0065000000 0.0065000000 0.0065000000 0.0065000000 0.0065000000 0.0065000000 0.0065000000 0.0065000000 0.0065000000 0.0065000000 0.0065000000 0.0065000000 0.0065000000 0.0065000000 0.0065000000 0.0065000000 0.0065000000 0.0065000000 0.0065000000 0.0065000000 0.0065000000 0.0065000000 0.0065000000 0.0065000000 0.0065000000 0.0065000000 0.0065000000 0.0065000000 0.0065000000 0.0065000000 0.0065000000 0.0065000000 0.0065000000 0.0065000000 0.0065000000 0.0065000000 0.0065000000 0.0065000000 0.0065000000 0.0065000000 0.0065000000 0.0065000000 0.0065000000 0.0065000000 0.0065000000 0.0065000000 0.0065000000 0.0065000000 0.0065000000 0.0065000000 0.0065000000 0.0065000000 0.0065000000 0.0065000000 0.0065000000 0.0065000000 0.0065000000 0.0065000000 0.0065000000 0.0065000000 0.0065000000 0.0065000000 0.0065000000 0.0065000000 0.0065000000 0.0065000000 0.0065000000 0.0065000000 0.0065000000 0.0065000000 0.0065000000 0.0065000000 0.0065000000 0.0065000000 0.0065000000 0.0065000000 0.0065000000 0.0065000000 0.0065000000 0.0065000000 0.0065000000 0.0065000000 0.0065000000 0.0065000000 0.0065000000 0.0065000000 0.0065000000 0.0065000000 0.0065000000 0.0065000000 0.0065000000 0.0065000000 0.0065000000 0.0065000000 0.0065000000 0.0065000000 0.0065000000 0.0065000000 0.0065000000 0.0065000000 0.0065000000 0.0065000000 0.0065000000 0.0065000000 0.0065000000 0.0065000000 0.0065000000 0.0065000000 0.0065000000 0.0065000000 0.0065000000 0.0065000000 0.0065000000 0.0065000000 0.0065000000 0.0065000000 0.0065000000 0.0065000000 0.0065000000 0.0065000000 0.0065000000 0.0065000000 0.0065000000 0.0065000000 0.0065000000 0.0065000000 0.0065000000 0.0065000000 0.0065000000 0.0065000000 0.0065000000 0.0065000000 0.0065000000 0.0065000000 0.0065000000 0.0065000000 0.0065000000 0.0065000000 0.0065000000 0.0065000000 0.0065000000 0.0065000000 0.0065000000 0.0065000000 0.0065000000 0.0065000000 0.0065000000 0.0065000000 0.0065000000 0.0065000000 0.0065000000 0.0065000000 0.0065000000 0.0065000000 0.0065000000 0.0065000000 0.0065000000 0.0065000000 0.0065000000 0.0065000000 0.0065000000 0.0065000000 0.0065000000 0.0065000000 0.0065000000 0.0065000000 0.0065000000 0.0065000000 0.0065000000 0.0065000000 0.0065000000 0.0065000000 0.0065000000 0.0065000000 0.0065000000 0.0065000000 0.0065000000 0.0065000000 0.0065000000 0.0065000000 0.0065000000 0.0065000000 0.0065000000 0.0065000000 0.0065000000 0.0065000000 0.0065000000 0.0065000000 0.0065000000 0.0065000000 0.0065000000 0.0065000000 0.0065000000 0.0065000000 0.0065000000 0.0065000000 0.0065000000 0.0065000000 0.0065000000 0.0065000000 0.0065000000 0.0065000000 0.0065000000 0.0065000000 0.0065000000 0.0065000000 0.0065000000 0.0065000000 0.0065000000 0.0065000000 0.0065000000 0.0065000000 0.0065000000 0.0065000000 0.0065000000 0.0065000000 0.0065000000 0.0065000000 0.0065000000 0.0065000000 0.0065000000 0.0065000000 0.0065000000 0.0065000000 0.0065000000 0.0065000000 0.0065000000 0.0065000000 0.0065000000 0.0065000000 0.0065000000 0.0065000000 0.0065000000 0.0065000000 0.0065000000 0.0065000000 0.0065000000 0.0065000000 0.0065000000 0.0065000000 0.0065000000 0.0065000000 0.0065000000 0.0065000000 0.0065000000 0.0065000000 0.0065000000 0.0065000000 0.0065000000 0.0065000000 0.0065000000 0.0065000000 0.0065000000 0.0065000000 0.0065000000 0.0065000000 0.0065000000 0.0065000000 0.0065000000 0.0065000000 0.0065000000 0.0065000000 0.0065000000 0.0065000000 0.0065000000 0.0065000000 0.0065000000 0.0065000000 0.0065000000 0.0065000000 0.0065000000 0.0065000000 0.0065000000 0.0065000000 0.0065000000 0.0065000000 0.0065000000 0.0065000000 0.0065000000 0.0065000000 0.0065000000 0.0065000000 0.0065000000 0.0065000000 0.0065000000 0.0065000000 0.0065000000 0.0065000000 0.0065000000 0.0065000000 0.0065000000 0.0065000000 0.0065000000 0.0065000000 0.0065000000 0.0065000000 0.0065000000 0.0065000000 0.0065000000 0.0065000000 0.0065000000 0.0065000000 0.0065000000 0.0065000000 0.0065000000 0.0065000000 0.0065000000 0.0065000000 0.0065000000 0.0065000000 0.0065000000 0.0065000000 0.0065000000 0.0065000000 0.0065000000 0.0065000000 0.0065000000 0.0065000000 0.0065000000 0.0065000000 0.0065000000 0.0065000000 0.0065000000 0.0065000000 0.0065000000 0.0065000000 0.0065000000 0.0065000000 0.0065000000 0.0065000000 0.0065000000 0.0065000000 0.0065000000 0.0065000000 0.0065000000 0.0065000000 0.0065000000 0.0065000000 0.0065000000 0.0065000000 0.0065000000 0.0065000000 0.0065000000 0.0065000000 0.0065000000 0.0065000000 0.0065000000 0.0065000000 0.0065000000 0.0065000000 0.0065000000 0.0065000000 0.0065000000 0.0065000000 0.0065000000 0.0065000000 0.0065000000 0.0065000000 0.0065000000 0.0065000000 0.0065000000 0.0065000000 0.0065000000 0.0065000000 0.0065000000 0.0065000000 0.0065000000 0.0065000000 0.0065000000 0.0065000000 0.0065000000 0.0065000000 0.0065000000 0.0065000000 0.0065000000 0.0065000000 0.0065000000 0.0065000000 0.0065000000 0.0065000000 0.0065000000 0.0065000000 0.0065000000 0.0065000000 0.0065000000 0.0065000000 0.0065000000 0.0065000000 0.0065000000 0.0065000000 0.0065000000 0.0065000000 0.0065000000 0.0065000000 0.0065000000 0.0065000000 0.0065000000 0.0065000000 0.0065000000 0.0065000000 0.0065000000 0.0065000000 0.0065000000 0.0065000000 0.0065000000 0.0065000000 0.0065000000 0.0065000000 0.0065000000 0.0065000000 0.0065000000 0.0065000000 0.0065000000 0.0065000000 0.0065000000 0.0065000000 0.0065000000 0.0065000000 0.0065000000 0.0065000000 0.0065000000 0.0065000000 0.0065000000 0.0065000000 0.0065000000 0.0065000000 0.0065000000 0.0065000000 0.0065000000 0.0065000000 0.0065000000 0.0065000000 0.0065000000 0.0065000000 0.0065000000 0.0065000000 0.0065000000 0.0065000000 0.0065000000 0.0065000000 0.0065000000 0.0065000000 0.0065000000 0.0065000000 0.0065000000 0.0065000000 0.0065000000 0.0065000000 0.0065000000 0.0065000000 0.0065000000 0.0065000000 0.0065000000 0.0065000000 0.0065000000 0.0065000000 0.0065000000 0.0065000000 0.0065000000 0.0065000000 0.0065000000 0.0065000000 0.0065000000 0.0065000000 0.0065000000 0.0065000000 0.0065000000 0.0065000000 0.0065000000 0.0065000000 0.0065000000 0.0065000000 0.0065000000 0.0065000000 0.0065000000 0.0065000000 0.0065000000 0.0065000000 0.0065000000 0.0065000000 0.0065000000 0.0065000000 0.0065000000 0.0065000000 0.0065000000 0.0065000000 0.0065000000 0.0065000000 0.0065000000 0.0065000000 0.0065000000 0.0065000000 0.0065000000 0.0065000000 0.0065000000 0.0065000000 0.0065000000 0.0065000000 0.0065000000 0.0065000000 0.0065000000 0.0065000000 0.0065000000 0.0065000000 0.0065000000 0.0065000000 0.0065000000 0.0065000000 0.0065000000 0.0065000000 0.0065000000 0.0065000000 0.0065000000 0.0065000000 0.0065000000 0.0065000000 0.0065000000 0.0065000000 0.0065000000 0.0065000000 0.0065000000 0.0065000000 0.0065000000 0.0065000000 0.0065000000 0.0065000000 0.0065000000 0.0065000000 0.0065000000 0.0065000000 0.0065000000 0.0065000000 0.0065000000 0.0065000000 0.0065000000 0.0065000000 0.0065000000 0.0065000000 0.0065000000 0.0065000000 0.0065000000 0.0065000000 0.0065000000 0.0065000000 0.0065000000 0.0065000000 0.0065000000 0.0065000000 0.0065000000 0.0065000000 0.0065000000 0.0065000000 0.0065000000 0.0065000000 0.0065000000 0.0065000000 0.0065000000 0.0065000000 0.0065000000 0.0065000000 0.0065000000 0.0065000000 0.0065000000 0.0065000000 0.0065000000 0.0065000000 0.0065000000 0.0065000000 0.0065000000 0.0065000000 0.0065000000 0.0065000000 0.0065000000 0.0065000000 0.0065000000 0.0065000000 0.0065000000 0.0065000000 0.0065000000 0.0065000000 0.0065000000 0.0065000000 0.0065000000 0.0065000000 0.0065000000 0.0065000000 0.0065000000 0.0065000000 0.0065000000 0.0065000000 0.0065000000 0.0065000000 0.0065000000 0.0065000000 0.0065000000 0.0065000000 0.0065000000 0.0065000000 0.0065000000 0.0065000000 0.0065000000 0.0065000000 0.0065000000 0.0065000000 0.0065000000 0.0065000000 0.0065000000 0.0065000000 0.0065000000 0.0065000000 0.0065000000 0.0065000000 0.0065000000 0.0065000000 0.0065000000 0.0065000000 0.0065000000 0.0065000000 0.0065000000 0.0065000000 0.0065000000 0.0065000000 0.0065000000 0.0065000000 0.0065000000 0.0065000000 0.0065000000 0.0065000000 0.0065000000 0.0065000000 0.0065000000 0.0065000000 0.0065000000 0.0065000000 0.0065000000 0.0065000000 0.0065000000 0.0065000000 0.0065000000 0.0065000000 0.0065000000 0.0065000000 0.0065000000 0.0065000000 0.0065000000 0.0065000000 0.0065000000 0.0065000000 0.0065000000 0.0065000000 0.0065000000 0.0065000000 0.0065000000 0.0065000000 0.0065000000 0.0065000000 0.0065000000 0.0065000000 0.0065000000 0.0065000000 0.0065000000 0.0065000000 0.0065000000 0.0065000000 0.0065000000 0.0065000000 0.0065000000 0.0065000000 0.0065000000 0.0065000000 0.0065000000 0.0065000000 0.0065000000 0.0065000000 0.0065000000 0.0065000000 0.0065000000 0.0065000000 0.0065000000 0.0065000000 0.0065000000 0.0065000000 0.0065000000 0.0065000000 0.0065000000 0.0065000000 0.0065000000 0.0065000000 0.0065000000 0.0065000000 0.0065000000 0.0065000000 0.0065000000 0.0065000000 0.0065000000 0.0065000000 0.0065000000 0.0065000000 0.0065000000 0.0065000000 0.0065000000 0.0065000000 0.0065000000 0.0065000000 0.0065000000 0.0065000000 0.0065000000 0.0065000000 0.0065000000 0.0065000000 0.0065000000 0.0065000000 0.0065000000 0.0065000000 0.0065000000 0.0065000000 0.0065000000 0.0065000000 0.0065000000 0.0065000000 0.0065000000 0.0065000000 0.0065000000 0.0065000000 0.0065000000 0.0065000000 0.0065000000 0.0065000000 0.0065000000 0.0065000000 0.0065000000 0.0065000000 0.0065000000 0.0065000000 0.0065000000 0.0065000000 0.0065000000 0.0065000000 0.0065000000 0.0065000000 0.0065000000 0.0065000000 0.0065000000 0.0065000000 0.0065000000 0.0065000000 0.0065000000 0.0065000000 0.0065000000 0.0065000000 0.0065000000 0.0065000000 0.0065000000 0.0065000000 0.0065000000 0.0065000000 0.0065000000 0.0065000000 0.0065000000 0.0065000000 0.0065000000 0.0065000000 0.0065000000 0.0065000000 0.0065000000 0.0065000000 0.0065000000 0.0065000000 0.0065000000 0.0065000000 0.0065000000 0.0065000000 0.0065000000 0.0065000000 0.0065000000 0.006500000