<?xml version="1.0"?>
<VTKFile type="UnstructuredGrid" version="0.1" byte_order="LittleEndian">
  <UnstructuredGrid>
    <FieldData>
      <DataArray type="Float32" Name="TIME"  NumberOfTuples="1" format="ascii"> 2.1984857753 </DataArray>
      <DataArray type="Int32"   Name="STEP"  NumberOfTuples="1" format="ascii"> 29480 </DataArray>
    </FieldData>
    <Piece NumberOfPoints="18081" NumberOfCells="18081">
      <Points>
        <DataArray type="Float32" NumberOfComponents="3" format="ascii">
 0.1201584251 0.0246405267 0.0000072458 0.1203685619 0.0044515467 0.0051646356 0.0852868743 0.0014827470 0.0087448696 0.2456575056 0.0121901708 0.0097552308 0.2138181385 0.0126805467 0.0185498773 0.1502606820 0.0010167050 0.0005131811 0.3180008781 0.0051834558 -0.0000061366 0.3651240133 0.0162466339 0.0017038815 0.4613054713 0.0026617955 0.0322363766 0.2067709316 0.0020200921 0.0220941099 0.2447207569 0.0198866730 0.0103687601 0.4796367674 0.0730984570 0.0418881563 0.4587810612 0.0187018283 0.0010344813 0.4671144147 0.0742416353 0.0296304840 0.4246857358 0.0239622023 0.0170124982 0.4332857658 0.0349104516 0.0004014863 0.3997427141 0.0003594242 0.0109032600 0.3650042527 0.0323979505 0.0080444308 0.1900187671 0.0158056602 0.0239625039 0.4758195042 0.0037830431 0.0426928201 0.4424831486 0.0419426335 0.0296493713 0.0691162840 0.0146828920 -0.0002595609 0.0504591632 0.0093388156 0.0001466520 0.0006231528 0.0682736701 0.0018552800 0.0225059824 0.0200179424 0.0046996901 0.2589820877 0.0038200155 0.0157333413 0.2945974411 0.0163757310 0.0000014066 0.2857727475 0.0116294471 0.0002602614 0.4671852817 0.0013527188 0.0256668779 0.4659182972 0.0135823765 0.0412954443 0.4579333169 0.0501098035 0.0100685313 0.4121246526 0.0374631261 0.0011246080 0.4128204555 0.0496896611 0.0013692773 0.4842050611 0.0794537975 0.0316225260 0.4588326404 0.0278802140 0.0268501294 0.4133792132 0.0115386291 0.0163345720 0.4602400593 0.0116351600 0.0225268506 0.3973050738 0.0093644869 -0.0000262156 0.1809636449 0.0063996060 0.0218629967 0.1961450176 0.0194562729 0.0196719474 0.0477492923 0.0068608947 0.0057296921 0.3837762482 0.0181605024 0.0127549614 0.1833498758 0.0038875345 0.0002806815 0.1325943667 0.0022183557 -0.0000780043 0.1225635816 0.0058937740 0.0008178664 0.0739734839 0.0136943872 0.0019878838 0.2125449564 0.0026469944 0.0115393494 0.3125649346 0.0160849628 0.0011296724 0.3504491687 0.0357121299 0.0013075971 0.2704566724 0.0476959744 0.0159487152 0.2079672449 0.0316567426 0.0204623101 0.3029420935 0.0112071096 0.0023894321 0.4673449963 0.0292385690 0.0009108370 0.4217675039 0.0564110022 0.0146903079 0.4115998893 0.0595662644 0.0021325279 0.4432640096 0.0281579605 0.0192299064 0.4402216419 0.0458914378 0.0204809572 0.2906831518 0.0090027603 0.0159762671 0.4528874210 0.0148669143 0.0248738660 0.4659254430 0.0055440519 0.0359762775 0.4878857010 0.0080321531 0.0299360116 0.3488592723 0.0280809698 0.0076594654 0.4503291796 0.0550444491 0.0380260506 0.0836485672 0.0247716167 0.0002726955 0.1609985408 0.0124701680 0.0005444020 0.1257572268 0.0087737695 0.0154194194 0.1963515428 0.0097328423 0.0206013217 0.2864937459 0.0222406747 0.0136494509 0.3109100580 -0.0002540394 0.0061218057 0.3487297563 0.0103862348 0.0000376523 0.2990978135 0.0180912489 0.0078761193 0.4812054033 0.0014446299 0.0010170352 0.4981262965 0.0389751615 0.0152744466 0.4261320217 0.0670198264 0.0071771766 0.3759636345 0.0524849993 0.0006377652 0.4494651106 0.0548716106 0.0263874320 0.4423237854 0.0362100541 0.0221894615 0.3875888700 0.0204454516 0.0173964528 0.4797542834 0.0452607427 0.0282233393 0.0791234379 0.0148799404 0.0073487478 0.2118121607 0.0299594367 0.0159515190 0.0664546799 0.0080731704 0.0115656219 0.4615146633 0.0623186256 0.0269650609 0.3598776339 0.0195331104 0.0121644742 0.1297382763 0.0229272428 0.0001250864 0.1588951070 0.0000642119 0.0015160640 0.2397645607 0.0008859813 0.0091686725 0.1617290601 0.0038021826 0.0002383187 0.0959867501 0.0102012123 0.0001084511 0.2773113949 0.0311390969 0.0056466897 0.3138703205 0.0291291994 0.0014421738 0.4699370612 0.0191985194 0.0310152524 0.2439363913 0.0468479191 0.0193890083 0.4560568770 0.0111833583 0.0053594291 0.4878302074 0.0393914618 0.0049265996 0.3444910616 0.0557764731 0.0047910965 0.3857722871 0.0467328254 -0.0002414042 0.4499057970 0.0771670963 0.0194058029 0.3982121325 0.0206637334 0.0051037147 0.1652574090 0.0181002800 0.0223859640 0.3496413412 0.0157121735 0.0151846889 0.3324454479 0.0454734490 0.0187756855 0.4731826237 0.0093702683 0.0426081498 0.4671045677 0.0339923717 0.0430342481 0.4598419540 0.0652957037 0.0362661434 0.0983663581 0.0308256672 -0.0002211616 0.1439137766 0.0271938874 0.0002350536 0.1880822028 0.0000422953 0.0083224265 0.0938404011 0.0001071468 0.0051446040 0.1925880011 0.0003300538 0.0012018776 0.2408369462 0.0107388958 -0.0005968883 0.3600004957 0.0037199611 0.0013297312 0.4555062059 0.0007781183 0.0088134761 0.2982340551 0.0357118832 0.0122747763 0.3637415974 0.0146825435 0.0117515866 0.3641970014 0.0482801390 0.0042879200 0.3224959467 0.0578219215 0.0049758480 0.4181803252 0.0590502385 0.0186110796 0.4734590001 0.0552264989 0.0219735305 0.4339365621 0.0181289942 0.0022589671 0.1877712604 0.0279088784 0.0211659703 0.2356203750 0.0241575335 0.0046442475 0.0103698764 0.0019412586 0.0091656324 0.0946091100 0.0142342698 0.0110737188 0.4198265411 0.0288394336 0.0091050128 0.3723925688 0.0353421096 0.0067569982 0.2261315096 0.0078311990 0.0053626329 0.1620162498 0.0146150885 0.0088490693 0.1451958111 0.0009170725 0.0002980539 0.0202123003 0.0222566012 -0.0000129428 0.1695085644 0.0210100550 0.0104930577 0.2504285452 0.0001597711 0.0004725984 0.4492794535 0.0302871297 0.0118109665 0.2560119062 0.0362913549 0.0035759778 0.2539354932 0.0094762975 -0.0002779109 0.4685816674 0.0345579325 0.0064817063 0.4242121988 0.0102523732 0.0012155724 0.4198161110 0.0751616518 0.0003328063 0.3952823362 0.0476679861 0.0062163889 0.4390129760 0.0673176284 0.0199816790 0.3703794354 0.0341150059 0.0166367864 0.3724987058 0.0383739858 0.0179605693 0.1581815947 0.0185285995 0.0139381049 0.2354709609 0.0504528615 0.0201952725 0.0160894563 0.0154717931 0.0145998923 0.4723510027 0.0880545240 0.0406131105 0.3484638293 0.0431819289 0.0187507538 0.1889427117 0.0048557259 0.0003305599 0.0361015761 0.0059739243 0.0101660981 0.1588947205 0.0371644355 0.0168162821 0.1297731794 -0.0001074310 0.0019372503 0.1631517022 0.0219026863 -0.0000070098 0.2277894471 0.0444560766 0.0084689954 0.4144490702 0.0229947195 0.0011843484 0.2490636078 0.0282505661 -0.0002828084 0.2593613590 0.0181931174 0.0071713455 0.2879583710 0.0369605853 0.0074693952 0.4807658655 0.0854640090 0.0371716487 0.4083476099 0.0585760955 0.0063501771 0.3299878206 0.0690164513 0.0061890245 0.2715286140 0.0196563547 0.0045425162 0.4414874077 0.0829187754 0.0200326271 0.3467500813 0.0336958870 0.0156507502 0.0225490406 0.0248786016 0.0043426730 0.0146366830 0.0495715693 0.0094222280 0.4595564092 0.0816266173 0.0252545182 0.1688253067 0.0410620293 0.0227738561 0.4532198422 0.0710756797 0.0379219803 0.2029625300 0.0040044815 0.0006903945 0.1679337506 0.0573129153 0.0159307276 0.1001427871 0.0011294343 0.0044919608 0.1050460783 0.0004306958 0.0057585432 0.0753755783 0.0127408765 0.0084715027 0.2671261404 0.0170448656 0.0001836125 0.3421540272 0.0143119356 0.0013801708 0.2610812547 0.0152349335 -0.0003866182 0.3824978183 0.0236457821 0.0121280068 0.2966897170 0.0420366613 0.0143928900 0.3698447116 0.0513627638 0.0078870033 0.4676159692 0.0579173936 0.0175486073 0.4631211448 0.0834622439 0.0368315638 0.4074423635 0.0779850583 0.0096222910 0.2307363552 0.0530810117 0.0039087633 0.2264433137 0.0405770600 -0.0001044858 0.4391819363 0.0403720052 0.0281506815 0.4311984745 0.0173088031 0.0227212399 0.4224233176 0.0296587212 0.0163550763 0.3720611253 0.0794991824 0.0088424258 0.1966043570 0.0190894872 0.0245440579 0.2131280755 0.0095820833 0.0002110312 0.2228434403 0.0065182738 0.0083852235 0.1716148525 0.0096299422 0.0039805823 0.1357772043 0.0168226706 0.0006760950 0.0332452698 0.0162560790 0.0083794779 0.2992999340 0.0270324885 0.0051572368 0.4047261453 0.0311971511 0.0001369442 0.3977329261 0.0160898032 0.0003479302 0.4409077994 0.0115512883 0.0010384407 0.3009250803 0.0144266399 -0.0006023436 0.4258237028 0.0502887222 0.0084793500 0.3293108012 0.0755307474 0.0008422182 0.4897025300 0.0592454259 0.0218709292 0.4342229765 0.0757354120 0.0074644239 0.3969147759 0.0528506066 0.0051054368 0.4569256362 0.0425503592 0.0392281858 0.3870971250 0.0725074117 0.0209963268 0.4383805365 0.0571784199 0.0259365336 0.3663674305 0.0555875579 0.0193936193 0.1265948642 0.0527745047 0.0178490926 0.4745709586 0.0837072313 0.0267502890 0.2062196597 0.0720974739 -0.0000820624 0.1959786303 0.0828372718 0.0106118836 0.2098826241 0.0906545746 0.0035612846 0.1713421989 0.0173995546 0.0130633144 0.1260297569 0.0542593562 0.0126210170 0.2778952251 0.0409823207 0.0024827815 0.3039941064 0.0349345507 0.0015842975 0.2289986585 0.0583065343 0.0064164400 0.1721636229 0.0356178459 0.0164033921 0.4372768972 0.0244361515 0.0061556202 0.3491655623 0.0757226436 0.0056723734 0.3860870322 0.0797734567 0.0088464608 0.4193774521 0.0848112299 0.0081991058 0.3524068231 0.0821051544 0.0083610360 0.2326372935 0.0464296854 0.0084780031 0.4612358702 0.0583753993 0.0119092113 0.4347564632 0.0544086106 0.0226829423 0.1325638874 0.0378168151 0.0224961036 0.2040826446 0.0435796579 0.0206474319 0.0939369254 0.0735740794 0.0113150140 0.4097435946 0.0748250614 0.0237947397 0.1884512856 0.0504084501 0.0042398721 0.1864651052 0.0620003719 0.0032039929 0.1594768229 0.0842355246 0.0020277964 0.1576272266 0.0098574009 0.0054557614 0.1848636350 0.0293482349 0.0080740895 0.2756264955 0.0399731678 0.0072208281 0.3314348399 0.0467349320 0.0090128859 0.2379617385 0.0361420744 -0.0001481684 0.1670907311 0.0180641629 0.0070018929 0.3064567494 0.0590035351 0.0063626905 0.3272335040 0.0797325861 0.0105303011 0.4791313671 0.0728010194 0.0091761003 0.31
[...]
      <PointData Scalars="smoothLength">
        <DataArray type="Float32" Name="smoothLength" format="ascii">
 0.0065000000 0.0065000000 0.0065000000 0.0065000000 0.0065000000 0.0065000000 0.0065000000 0.0065000000 0.0065000000 0.0065000000 0.0065000000 0.0065000000 0.0065000000 0.0065000000 0.0065000000 0.0065000000 0.0065000000 0.0065000000 0.0065000000 0.0065000000 0.0065000000 0.0065000000 0.0065000000 0.0065000000 0.0065000000 0.0065000000 0.0065000000 0.0065000000 0.0065000000 0.0065000000 0.0065000000 0.0065000000 0.0065000000 0.0065000000 0.0065000000 0.0065000000 0.0065000000 0.0065000000 0.0065000000 0.0065000000 0.0065000000 0.0065000000 0.0065000000 0.0065000000 0.0065000000 0.0065000000 0.0065000000 0.0065000000 0.0065000000 0.0065000000 0.0065000000 0.0065000000 0.0065000000 0.0065000000 0.0065000000 0.0065000000 0.0065000000 0.0065000000 0.0065000000 0.0065000000 0.0065000000 0.0065000000 0.0065000000 0.0065000000 0.0065000000 0.0065000000 0.0065000000 0.0065000000 0.0065000000 0.0065000000 0.0065000000 0.0065000000 0.0065000000 0.0065000000 0.0065000000 0.0065000000 0.0065000000 0.0065000000 0.0065000000 0.0065000000 0.0065000000 0.0065000000 0.0065000000 0.0065000000 0.0065000000 0.0065000000 0.0065000000 0.0065000000 0.0065000000 0.0065000000 0.0065000000 0.0065000000 0.0065000000 0.0065000000 0.0065000000 0.0065000000 0.0065000000 0.0065000000 0.0065000000 0.0065000000 0.0065000000 0.0065000000 0.0065000000 0.0065000000 0.0065000000 0.0065000000 0.0065000000 0.0065000000 0.0065000000 0.0065000000 0.0065000000 0.0065000000 0.0065000000 0.0065000000 0.0065000000 0.0065000000 0.0065000000 0.0065000000 0.0065000000 0.0065000000 0.0065000000 0.0065000000 0.0065000000 0.0065000000 0.0065000000 0.0065000000 0.0065000000 0.0065000000 0.0065000000 0.0065000000 0.0065000000 0.0065000000 0.0065000000 0.0065000000 0.0065000000 0.0065000000 0.0065000000 0.0065000000 0.0065000000 0.0065000000 0.0065000000 0.0065000000 0.0065000000 0.0065000000 0.0065000000 0.0065000000 0.0065000000 0.0065000000 0.0065000000 0.0065000000 0.0065000000 0.0065000000 0.0065000000 0.0065000000 0.0065000000 0.0065000000 0.0065000000 0.0065000000 0.0065000000 0.0065000000 0.0065000000 0.0065000000 0.0065000000 0.0065000000 0.0065000000 0.0065000000 0.0065000000 0.0065000000 0.0065000000 0.0065000000 0.0065000000 0.0065000000 0.0065000000 0.0065000000 0.0065000000 0.0065000000 0.0065000000 0.0065000000 0.0065000000 0.0065000000 0.0065000000 0.0065000000 0.0065000000 0.0065000000 0.0065000000 0.0065000000 0.0065000000 0.0065000000 0.0065000000 0.0065000000 0.0065000000 0.0065000000 0.0065000000 0.0065000000 0.0065000000 0.0065000000 0.0065000000 0.0065000000 0.0065000000 0.0065000000 0.0065000000 0.0065000000 0.0065000000 0.0065000000 0.0065000000 0.0065000000 0.0065000000 0.0065000000 0.0065000000 0.0065000000 0.0065000000 0.0065000000 0.0065000000 0.0065000000 0.0065000000 0.0065000000 0.0065000000 0.0065000000 0.0065000000 0.0065000000 0.0065000000 0.0065000000 0.0065000000 0.0065000000 0.0065000000 0.0065000000 0.0065000000 0.0065000000 0.0065000000 0.0065000000 0.0065000000 0.0065000000 0.0065000000 0.0065000000 0.0065000000 0.0065000000 0.0065000000 0.0065000000 0.0065000000 0.0065000000 0.0065000000 0.0065000000 0.0065000000 0.0065000000 0.0065000000 0.0065000000 0.0065000000 0.0065000000 0.0065000000 0.0065000000 0.0065000000 0.0065000000 0.0065000000 0.0065000000 0.0065000000 0.0065000000 0.0065000000 0.0065000000 0.0065000000 0.0065000000 0.0065000000 0.0065000000 0.0065000000 0.0065000000 0.0065000000 0.0065000000 0.0065000000 0.0065000000 0.0065000000 0.0065000000 0.0065000000 0.0065000000 0.0065000000 0.0065000000 0.0065000000 0.0065000000 0.0065000000 0.0065000000 0.0065000000 0.0065000000 0.0065000000 0.0065000000 0.0065000000 0.0065000000 0.0065000000 0.0065000000 0.0065000000 0.0065000000 0.0065000000 0.0065000000 0.0065000000 0.0065000000 0.0065000000 0.0065000000 0.0065000000 0.0065000000 0.0065000000 0.0065000000 0.0065000000 0.0065000000 0.0065000000 0.0065000000 0.0065000000 0.0065000000 0.0065000000 0.0065000000 0.0065000000 0.0065000000 0.0065000000 0.0065000000 0.0065000000 0.0065000000 0.0065000000 0.0065000000 0.0065000000 0.0065000000 0.0065000000 0.0065000000 0.0065000000 0.0065000000 0.0065000000 0.0065000000 0.0065000000 0.0065000000 0.0065000000 0.0065000000 0.0065000000 0.0065000000 0.0065000000 0.0065000000 0.0065000000 0.0065000000 0.0065000000 0.0065000000 0.0065000000 0.0065000000 0.0065000000 0.0065000000 0.0065000000 0.0065000000 0.0065000000 0.0065000000 0.0065000000 0.0065000000 0.0065000000 0.0065000000 0.0065000000 0.0065000000 0.0065000000 0.0065000000 0.0065000000 0.0065000000 0.0065000000 0.0065000000 0.0065000000 0.0065000000 0.0065000000 0.0065000000 0.0065000000 0.0065000000 0.0065000000 0.0065000000 0.0065000000 0.0065000000 0.0065000000 0.0065000000 0.0065000000 0.0065000000 0.0065000000 0.0065000000 0.0065000000 0.0065000000 0.0065000000 0.0065000000 0.0065000000 0.0065000000 0.0065000000 0.0065000000 0.0065000000 0.0065000000 0.0065000000 0.0065000000 0.0065000000 0.0065000000 0.0065000000 0.0065000000 0.0065000000 0.0065000000 0.0065000000 0.0065000000 0.0065000000 0.0065000000 0.0065000000 0.0065000000 0.0065000000 0.0065000000 0.0065000000 0.0065000000 0.0065000000 0.0065000000 0.0065000000 0.0065000000 0.0065000000 0.0065000000 0.0065000000 0.0065000000 0.0065000000 0.0065000000 0.0065000000 0.0065000000 0.0065000000 0.0065000000 0.0065000000 0.0065000000 0.0065000000 0.0065000000 0.0065000000 0.0065000000 0.0065000000 0.0065000000 0.0065000000 0.0065000000 0.0065000000 0.0065000000 0.0065000000 0.0065000000 0.0065000000 0.0065000000 0.0065000000 0.0065000000 0.0065000000 0.0065000000 0.0065000000 0.0065000000 0.0065000000 0.0065000000 0.0065000000 0.0065000000 0.0065000000 0.0065000000 0.0065000000 0.0065000000 0.0065000000 0.0065000000 0.0065000000 0.0065000000 0.0065000000 0.0065000000 0.0065000000 0.0065000000 0.0065000000 0.0065000000 0.0065000000 0.0065000000 0.0065000000 0.0065000000 0.0065000000 0.0065000000 0.0065000000 0.0065000000 0.0065000000 0.0065000000 0.0065000000 0.0065000000 0.0065000000 0.0065000000 0.0065000000 0.0065000000 0.0065000000 0.0065000000 0.0065000000 0.0065000000 0.0065000000 0.0065000000 0.0065000000 0.0065000000 0.0065000000 0.0065000000 0.0065000000 0.0065000000 0.0065000000 0.0065000000 0.0065000000 0.0065000000 0.0065000000 0.0065000000 0.0065000000 0.0065000000 0.0065000000 0.0065000000 0.0065000000 0.0065000000 0.0065000000 0.0065000000 0.0065000000 0.0065000000 0.0065000000 0.0065000000 0.0065000000 0.0065000000 0.0065000000 0.0065000000 0.0065000000 0.0065000000 0.0065000000 0.0065000000 0.0065000000 0.0065000000 0.0065000000 0.0065000000 0.0065000000 0.0065000000 0.0065000000 0.0065000000 0.0065000000 0.0065000000 0.0065000000 0.0065000000 0.0065000000 0.0065000000 0.0065000000 0.0065000000 0.0065000000 0.0065000000 0.0065000000 0.0065000000 0.0065000000 0.0065000000 0.0065000000 0.0065000000 0.0065000000 0.0065000000 0.0065000000 0.0065000000 0.0065000000 0.0065000000 0.0065000000 0.0065000000 0.0065000000 0.0065000000 0.0065000000 0.0065000000 0.0065000000 0.0065000000 0.0065000000 0.0065000000 0.0065000000 0.0065000000 0.0065000000 0.0065000000 0.0065000000 0.0065000000 0.0065000000 0.0065000000 0.0065000000 0.0065000000 0.0065000000 0.0065000000 0.0065000000 0.0065000000 0.0065000000 0.0065000000 0.0065000000 0.0065000000 0.0065000000 0.0065000000 0.0065000000 0.0065000000 0.0065000000 0.0065000000 0.0065000000 0.0065000000 0.0065000000 0.0065000000 0.0065000000 0.0065000000 0.0065000000 0.0065000000 0.0065000000 0.0065000000 0.0065000000 0.0065000000 0.0065000000 0.0065000000 0.0065000000 0.0065000000 0.0065000000 0.0065000000 0.0065000000 0.0065000000 0.0065000000 0.0065000000 0.0065000000 0.0065000000 0.0065000000 0.0065000000 0.0065000000 0.0065000000 0.0065000000 0.0065000000 0.0065000000 0.0065000000 0.0065000000 0.0065000000 0.0065000000 0.0065000000 0.0065000000 0.0065000000 0.0065000000 0.0065000000 0.0065000000 0.0065000000 0.0065000000 0.0065000000 0.0065000000 0.0065000000 0.0065000000 0.0065000000 0.0065000000 0.0065000000 0.0065000000 0.0065000000 0.0065000000 0.0065000000 0.0065000000 0.0065000000 0.0065000000 0.0065000000 0.0065000000 0.0065000000 0.0065000000 0.0065000000 0.0065000000 0.0065000000 0.0065000000 0.0065000000 0.0065000000 0.0065000000 0.0065000000 0.0065000000 0.0065000000 0.0065000000 0.0065000000 0.0065000000 0.0065000000 0.0065000000 0.0065000000 0.0065000000 0.0065000000 0.0065000000 0.0065000000 0.0065000000 0.0065000000 0.0065000000 0.0065000000 0.0065000000 0.0065000000 0.0065000000 0.0065000000 0.0065000000 0.0065000000 0.0065000000 0.0065000000 0.0065000000 0.0065000000 0.0065000000 0.0065000000 0.0065000000 0.0065000000 0.0065000000 0.0065000000 0.0065000000 0.0065000000 0.0065000000 0.0065000000 0.0065000000 0.0065000000 0.0065000000 0.0065000000 0.0065000000 0.0065000000 0.0065000000 0.0065000000 0.0065000000 0.0065000000 0.0065000000 0.0065000000 0.0065000000 0.0065000000 0.0065000000 0.0065000000 0.0065000000 0.0065000000 0.0065000000 0.0065000000 0.0065000000 0.0065000000 0.0065000000 0.0065000000 0.0065000000 0.0065000000 0.0065000000 0.0065000000 0.0065000000 0.0065000000 0.0065000000 0.0065000000 0.0065000000 0.0065000000 0.0065000000 0.0065000000 0.0065000000 0.0065000000 0.0065000000 0.0065000000 0.0065000000 0.0065000000 0.0065000000 0.0065000000 0.0065000000 0.0065000000 0.0065000000 0.0065000000 0.0065000000 0.0065000000 0.0065000000 0.0065000000 0.0065000000 0.0065000000 0.0065000000 0.0065000000 0.0065000000 0.0065000000 0.0065000000 0.0065000000 0.0065000000 0.0065000000 0.0065000000 0.0065000000 0.0065000000 0.0065000000 0.0065000000 0.0065000000 0.0065000000 0.0065000000 0.0065000000 0.0065000000 0.0065000000 0.0065000000 0.0065000000 0.0065000000 0.0065000000 0.0065000000 0.0065000000 0.0065000000 0.0065000000 0.0065000000 0.0065000000 0.0065000000 0.0065000000 0.0065000000 0.0065000000 0.0065000000 0.0065000000 0.0065000000 0.0065000000 0.0065000000 0.0065000000 0.0065000000 0.0065000000 0.0065000000 0.0065000000 0.0065000000 0.0065000000 0.0065000000 0.0065000000 0.0065000000 0.0065000000 0.0065000000 0.0065000000 0.0065000000 0.0065000000 0.0065000000 0.0065000000 0.0065000000 0.0065000000 0.0065000000 0.0065000000 0.0065000000 0.0065000000 0.0065000000 0.0065000000 0.0065000000 0.0065000000 0.0065000000 0.0065000000 0.0065000000 0.0065000000 0.0065000000 0.0065000000 0.0065000000 0.0065000000 0.0065000000 0.0065000000 0.0065000000 0.0065000000 0.0065000000 0.0065000000 0.0065000000 0.0065000000 0.0065000000 0.0065000000 0.0065000000 0.0065000000 0.0065000000 0.0065000000 0.0065000000 0.0065000000 0.0065000000 0.0065000000 0.0065000000 0.0065000000 0.0065000000 0.0065000000 0.0065000000 0.0065000000 0.0065000000 0.0065000000 0.0065000000 0.0065000000 0.0065000000 0.0065000000 0.0065000000 0.0065000000 0.0065000000 0.0065000000 0.0065000000 0.0065000000 0.0065000000 0.0065000000 0.0065000000 0.0065000000 0.0065000000 0.0065000000 0.0065000000 0.0065000000 0.0065000000 0.0065000000 0.0065000000 0.0065000000 0.0065000000 0.0065000000 0.0065000000 0.0065000000 0.0065000000 0.0065000000 0.0065000000 0.0065000000 0.0065000000 0.0065000000 0.0065000000 0.0065000000 0.0065000000 0.0065000000 0.0065000000 0.0065000000 0.0065000000 0.0065000000 0.0065000000 0.0065000000 0.0065000000 0.0065000000 0.0065000000 0.0065000000 0.0065000000 0.0065000000 0.0065000000 0.0065000000 0.0065000000 0.0065000000 0.0065000000 0.0065000000 0.0065000000 0.0065000000 0.0065000000 0.0065000000 0.0065000000 0.0065000000 0.0065000000 0.0065000000 0.0065000000 0.0065000000 0.0065000000 0.0065000000 0.0065000000 0.0065000000 0.0065000000 0.0065000000 0.0065000000 0.0065000000 0.0065000000 0.0065000000 0.0065000000 0.0065000000 0.0065000000 0.0065000000 0.0065000000 0.0065000000 0.0065000000 0.0065000000 0.0065000000 0.0065000000 0.0065000000 0.0065000000 0.0065000000 0.0065000000 0.0065000000 0.0065000000 0.0065000000 0.0065000000 0.0065000000 0.0065000000 0.0065000000 0.0065000000 0.0065000000 0.0065000000 0.0065000000 0.0065000000 0.0065000000 0.0065000000 0.0065000000 0.0065000000 0.0065000000 0.0065000000 0.0065000000 0.0065000000 0.0065000000 0.0065000000 0.0065000000 0.0065000000 0.0065000000 0.0065000000 0.0065000000 0.0065000000 0.0065000000 0.0065000000 0.0065000000 0.0065000000 0.0065000000 0.0065000000 0.0065000000 0.0065000000 0.0065000000 0.0065000000 0.0065000000 0.0065000000 0.0065000000 0.0065000000 0.0065000000 0.0065000000 0.0065000000 0.0065000000 0.0065000000 0.0065000000 0.0065000000 0.0065000000 0.0065000000 0.0065000000 0.0065000000 0.0065000000 0.0065000000 0.0065000000 0.0065000000 0.0065000000 0.0065000000 0.0065000000 0.0065000000 0.0065000000 0.0065000000 0.0065000000 0.0065000000 0.0065000000 0.0065000000 0.0065000000 0.0065000000 0.0065000000 0.0065000000 0.0065000000 0.0065000000 0.0065000000 0.0065000000 0.0065000000 0.0065000000 0.0065000000 0.0065000000 0.0065000000 0.0065000000 0.0065000000 0.0065000000 0.0065000000 0.0065000000 0.0065000000 0.0065000000 0.0065000000 0.0065000000 0.0065000000 0.0065000000 0.0065000000 0.0065000000 0.0065000000 0.0065000000 0.0065000000 0.0065000000 0.0065000000 0.0065000000 0.0065000000 0.0065000000 0.0065000000 0.0065000000 0.0065000000 0.0065000000 0.0065000000 0.0065000000 0.0065000000 0.0065000000 0.0065000000 0.0065000000 0.0065000000 0.0065000000 0.0065000000 0.0065000000 0.0065000000 0.0065000000 0.0065000000 0.0065000000 0.0065000000 0.0065000000 0.0065000000 0.0065000000 0.0065000000 0.0065000000 0.0065000000 0.0065000000 0.0065000000 0.0065000000 0.0065000000 0.0065000000 0.0065000000 0.0065000000 0.0065000000 0.0065000000 0.0065000000 0.0065000000 0.0065000000 0.0065000000 0.0065000000 0.0065000000 0.0065000000 0.0065000000 0.0065000000 0.0065000000 0.0065000000 0.0065000000 0.0065000000 0.0065000000 0.0065000000 0.0065000000 0.0065000000 0.0065000000 0.0065000000 0.0065000000 0.0065000000 0.0065000000 0.0065000000 0.0065000000 0.0065000000 0.0065000000 0.0065000000 0.0065000000 0.0065000000 0.0065000000 0.0065000000 0.0065000000 0.0065000000 0.0065000000 0.0065000000 0.0065000000 0.0065000000 0.0065000000 0.0065000000 0.0065000000 0.0065000000 0.0065000000 0.0065000000 0.0065000000 0.0065000000 0.0065000000 0.0065000000 0.0065000000 0.0065000000 0.0065000000 0.0065000000 0.0065000000 0.0065000000 0.0065000000 0.0065000000 0.0065000000 0.0065000000 0.0065000000 0.0065000000 0.0065000000 0.0065000000 0.0065000000 0.0065000000 0.0065000000 0.0065000000 0.0065000000 0.0065000000 0.0065000000 0.0065000000 0.0065000000 0.0065000000 0.0065000000 0.0065000000 0.0065000000 0.0065000000 0.0065000000 0.0065000000 0.0065000000 0.0065000000 0.0065000000 0.0065000000 0.0065000000 0.0065000000 0.0065000000 0.0065000000 0.0065000000 0.0065000000 0.0065000000 0.0065000000 0.0065000000 0.0065000000 0.0065000000 0.0065000000 0.0065000000 0.0065000000 0.0065000000 0.0065000000 0.0065000000 0.0065000000 0.0065000000 0.0065000000 0.0065000000 0.0065000000 0.0065000000 0.0065000000 0.0065000000 0.0065000000 0.0065000000 0.0065000000 0.0065000000 0.0065000000 0.0065000000 0.0065000000 0.0065000000 0.0065000000 0.0065000000 0.0065000000 0.0065000000 0.0065000000 0.0065000000 0.0065000000 0.0065000000 0.0065000000 0.0065000000 0.0065000000 0.0065000000 0.0065000000 0.0065000000 0.0065000000 0.0065000000 0.0065000000 0.0065000000 0.0065000000 0.0065000000 0.0065000000 0.0065000000 0.0065000000 0.0065000000 0.0065000000 0.0065000000 0.0065000000 0.0065000000 0.0065000000 0.0065000000 0.0065000000 0.0065000000 0.0065000000 0.0065000000 0.0065000000 0.0065000000 0.0065000000 0.0065000000 0.0065000000 0.0065000000 0.0065000000 0.0065000000 0.0065000000 0.0065000000 0.0065000000 0.0065000000 0.0065000000 0.0065000000 0.0065000000 0.0065000000 0.0065000000 0.0065000000 0.0065000000 0.0065000000 0.0065000000 0.0065000000 0.0065000000 0.0065000000 0.0065000000 0.0065000000 0.0065000000 0.0065000000 0.0065000000 0.0065000000 0.0065000000 0.0065000000 0.0065000000 0.0065000000 0.0065000000 0.0065000000 0.0065000000 0.0065000000 0.0065000000 0.0065000000 0.0065000000 0.0065000000 0.0065000000 0.0065000000 0.0065000000 0.0065000000 0.0065000000 0.0065000000 0.0065000000 0.0065000000 0.0065000000 0.0065000000 0.0065000000 0.0065000000 0.0065000000 0.0065000000 0.0065000000 0.0065000000 0.0065000000 0.0065000000 0.0065000000 0.0065000000 0.0065000000 0.0065000000 0.0065000000 0.0065000000 0.0065000000 0.0065000000 0.0065000000 0.0065000000 0.0065000000 0.0065000000 0.0065000000 0.0065000000 0.0065000000 0.0065000000 0.0065000000 0.0065000000 0.0065000000 0.0065000000 0.0065000000 0.0065000000 0.0065000000 0.0065000000 0.0065000000 0.0065000000 0.0065000000 0.0065000000 0.0065000000 0.0065000000 0.0065000000 0.0065000000 0.0065000000 0.0065000000 0.0065000000 0.0065000000 0.0065000000 0.0065000000 0.0065000000 0.0065000000 0.0065000000 0.0065000000 0.0065000000 0.0065000000 0.0065000000 0.0065000000 0.0065000000 0.0065000000 0.0065000000 0.0065000000 0.0065000000 0.0065000000 0.0065000000 0.0065000000 0.0065000000 0.0065000000 0.0065000000 0.0065000000 0.0065000000 0.0065000000 0.0065000000 0.0065000000 0.0065000000 0.0065000000 0.0065000000 0.0065000000 0.0065000000 0.0065000000 0.0065000000 0.0065000000 0.0065000000 0.0065000000 0.0065000000 0.0065000000 0.0065000000 0.0065000000 0.0065000000 0.0065000000 0.0065000000 0.0065000000 0.0065000000 0.0065000000 0.0065000000 0.0065000000 0.0065000000 0.0065000000 0.0065000000 0.0065000000 0.0065000000 0.0065000000 0.0065000000 0.0065000000 0.0065000000 0.0065000000 0.0065000000 0.0065000000 0.0065000000 0.0065000000 0.0065000000 0.0065000000 0.0065000000 0.0065000000 0.0065000000 0.0065000000 0.0065000000 0.0065000000 0.0065000000 0.0065000000 0.0065000000 0.0065000000 0.0065000000 0.0065000000 0.0065000000 0.0065000000 0.0065000000 0.0065000000 0.0065000000 0.0065000000 0.0065000000 0.0065000000 0.0065000000 0.0065000000 0.0065000000 0.0065000000 0.0065000000 0.0065000000 0.0065000000 0.0065000000 0.0065000000 0.0065000000 0.0065000000 0.0065000000 0.0065000000 0.0065000000 0.0065000000 0.0065000000 0.0065000000 0.0065000000 0.0065000000 0.0065000000 0.0065000000 0.0065000000 0.0065000000 0.0065000000 0.0065000000 0.0065000000 0.0065000000 0.0065000000 0.0065000000 0.0065000000 0.0065000000 0.0065000000 0.0065000000 0.0065000000 0.0065000000 0.0065000000 0.0065000000 0.0065000000 0.0065000000 0.0065000000 0.0065000000 0.0065000000 0.0065000000 0.0065000000 0.0065000000 0.0065000000 0.0065000000 0.0065000000 0.0065000000 0.0065000000 0.0065000000 0.0065000000 0.0065000000 0.0065000000 0.0065000000 0.0065000000 0.0065000000 0.0065000000 0.0065000000 0.0065000000 0.0065000000 0.0065000000 0.0065000000 0.0065000000 0.0065000000 0.0065000000 0.0065000000 0.0065000000 0.0065000000 0.0065000000 0.0065000000 0.0065000000 0.0065000000 0.0065000000 0.0065000000 0.0065000000 0.0065000000 0.0065000000 0.0065000000 0.0065000000 0.0065000000 0.0065000000 0.0065000000 0.0065000000 0.0065000000 0.0065000000 0.0065000000 0.0065000000 0.0065000000 0.0065000000 0.0065000000 0.0065000000 0.0065000000 0.0065000000 0.0065000000 0.0065000000 0.0065000000 0.0065000000 0.0065000000 0.0065000000 0.0065000000 0.0065000000 0.0065000000 0.0065000000 0.0065000000 0.0065000000 0.0065000000 0.0065000000 0.0065000000 0.0065000000 0.0065000000 0.0065000000 0.0065000000 0.0065000000 0.0065000000 0.0065000000 0.0065000000 0.0065000000 0.0065000000 0.0065000000 0.0065000000 0.0065000000 0.0065000000 0.0065000000 0.0065000000 0.0065000000 0.0065000000 0.0065000000 0.0065000000 0.0065000000 0.0065000000 0.0065000000 0.0065000000 0.0065000000 0.0065000000 0.0065000000 0.0065000000 0.0065000000 0.0065000000 0.0065000000 0.0065000000 0.0065000000 0.0065000000 0.0065000000 0.0065000000 0.0065000000 0.0065000000 0.0065000000 0.0065000000 0.0065000000 0.006500000