<?xml version="1.0"?>
<VTKFile type="UnstructuredGrid" version="0.1" byte_order="LittleEndian">
  <UnstructuredGrid>
    <FieldData>
      <DataArray type="Float32" Name="TIME"  NumberOfTuples="1" format="ascii"> 3.0479007340 </DataArray>
      <DataArray type="Int32"   Name="STEP"  NumberOfTuples="1" format="ascii"> 40870 </DataArray>
    </FieldData>
    <Piece NumberOfPoints="18081" NumberOfCells="18081">
      <Points>
        <DataArray type="Float32" NumberOfComponents="3" format="ascii">
 0.0780709162 0.0910170908 0.0095860109 0.0121483363 0.0881354970 0.0001040115 0.1076287887 0.0574116551 0.0066832301 0.0666053880 0.0025920154 0.0116514880 0.0949410739 0.0277500748 0.0058836485 0.0082215263 0.0019740588 0.0159187591 0.4734216170 0.0109255555 0.0107810991 0.4056963367 0.0409828383 0.0046553520 0.4990675582 0.0040534632 0.0005616803 0.4164374143 0.0344499802 0.0080777082 0.4388940443 0.0208949231 0.0146447390 0.4994724825 0.0411873747 0.0097662536 0.4839965184 0.0090120547 0.0187134256 0.3536640919 0.0223605037 0.0153983935 0.4661269434 0.0454028519 0.0186595273 0.3986974361 0.0172185222 0.0238699716 0.4967215210 0.0247151781 0.0147418089 0.2995653786 0.0858887750 0.0272994085 0.3672012019 0.0269455977 0.0235157875 0.1916757626 0.0030376348 0.0171014205 0.4614657748 0.0061778038 0.0236615948 0.1111624366 0.0964721127 0.0006580352 0.0189102138 0.0677222804 0.0148617266 0.0802053032 0.0478507060 0.0043182224 0.0785022113 0.0459383211 0.0001253692 0.0167989665 0.0230512683 0.0063251777 0.4128876724 -0.0008271443 0.0069113603 0.4858406778 0.0023491042 0.0091923753 0.4351830794 0.0313355649 0.0054519731 0.4779675651 0.0166539684 0.0205419814 0.4826620333 0.0151092893 0.0013559468 0.3960685043 0.0661910794 0.0177293126 0.4925119185 0.0236723571 0.0181317431 0.3933494197 0.0589406154 0.0127110081 0.4906877279 0.0300129795 0.0096951911 0.3367938332 0.0292712074 0.0186353231 0.4576428231 0.0249104991 0.0081608476 0.3576897254 0.0236368705 0.0215507631 0.0641118754 0.0486423682 0.0192866615 0.0098748153 0.0304544563 0.0175866709 0.3429342675 0.0230114648 0.0122605899 0.2504474280 0.0964558494 0.0280952234 0.1323261101 0.0182636678 0.0099734159 0.0005446342 0.0920074223 0.0017244222 0.0920921430 0.0682602925 0.0003462617 0.1948310935 0.0708815638 0.0213454796 0.3721243651 0.0052724965 0.0026604812 0.3743470490 0.0380842917 0.0125783578 0.4856500926 0.0191956728 0.0005950797 0.4991966684 0.0727825320 0.0094608890 0.4979811702 0.0714548749 0.0180467389 0.4682665295 0.0035135896 0.0011713216 0.3006887132 0.0567190054 0.0250778414 0.3701084671 0.0734635528 0.0040328632 0.4581000234 0.0431984239 0.0218258700 0.4685267366 0.0550439503 0.0161468788 0.4104221060 0.0345466386 -0.0000888996 0.4280186414 0.0614362357 0.0004908445 0.3992034262 0.0102765201 0.0187829696 0.0273713836 0.0738104230 0.0100211146 0.3903798287 0.0476209014 0.0226997902 0.4906868124 0.0660414054 0.0129652035 0.3869612177 0.0562615267 0.0142247508 0.0917513590 0.0527824721 0.0016841313 0.0854812518 0.0070351664 0.0097066818 0.0919207620 0.0757819072 0.0060285537 0.0884117141 0.0378612964 0.0067150717 0.3844399967 0.0125138417 0.0045098997 0.4338989245 0.0170835309 0.0002175672 0.4480574675 0.0099108762 0.0002365905 0.3046293665 0.0256393813 0.0179740406 0.2706068410 0.0028733456 0.0175449715 0.4845731995 0.0542971482 0.0024754456 0.3808469278 0.0754053578 0.0198429151 0.3363476773 0.0653603497 0.0092605892 0.4373614514 0.0220254392 0.0097559829 0.3782568271 0.0111690715 0.0026146083 0.2743518568 0.0492456959 0.0073891646 0.3204908938 0.0315192000 0.0210871872 0.2479411121 0.0229955803 0.0238099131 0.0336566441 0.0778002898 0.0114768732 0.0730446992 0.0996994635 0.0066682799 0.0380885955 0.0595091421 0.0202577719 0.4531991915 0.0869919853 0.0133801264 0.1676391606 0.0302870747 0.0078624300 0.1904596948 0.0160437991 0.0011939549 0.0426366684 0.0594705405 0.0047996578 0.3024329360 0.0036346492 0.0100626304 0.3673284880 0.0224899140 0.0000163561 0.4181309640 0.0005924670 0.0124297591 0.4594043319 0.0463100595 0.0050242731 0.4112994272 0.0185632283 0.0038203028 0.3981738818 0.0115612060 0.0027882822 0.3700137965 0.0268385439 0.0050241976 0.4674349036 0.0727212250 0.0008001395 0.3386967336 0.0749714318 0.0156727122 0.3091280582 0.0504224533 0.0169723508 0.3933735129 0.0673751069 0.0006071172 0.2304051719 0.0447714090 0.0205821332 0.3375944978 0.0573360291 0.0233476855 0.4367687843 0.0059275859 0.0235367146 0.3279733035 0.0318128031 0.0224258430 0.2733258439 0.0650528707 0.0234426887 0.3682948066 0.0043921448 0.0178737712 0.2931800397 0.0626493731 0.0251169117 0.1554528918 0.0207579467 0.0124708473 0.0826400603 0.0428903421 0.0005825043 0.0889589215 0.0624462933 0.0012086833 0.0059189251 0.0577807788 0.0050152476 0.4214228154 0.0055533302 0.0047850703 0.4751854323 0.0345797214 0.0005882447 0.3327616061 0.0475676100 0.0069462524 0.3342128319 0.0224743490 0.0156023350 0.2009700798 0.0332947711 0.0274061414 0.3871714182 0.0468609159 -0.0003221717 0.3776982455 0.0470493874 0.0058290490 0.3418064623 0.0605313065 0.0088886216 0.3443563550 0.0712431913 0.0137370577 0.2804483393 0.0846213042 0.0261974240 0.3586414246 0.0470715631 0.0177419821 0.3391958006 0.0667841585 0.0172348523 0.2444508948 0.0089788677 0.0200937702 0.1104224419 0.0714370718 0.0104579347 0.3235283355 0.0052065879 0.0046433988 0.3318677968 0.0145820177 0.0220531875 0.4718015093 0.0645463013 0.0164806174 0.1660490882 0.0316054205 0.0002821937 0.1915022551 0.0060961504 0.0110927297 0.0710049537 0.0515055972 0.0003869206 0.3561741791 0.0245113872 0.0002555729 0.3751519260 0.0155913428 0.0044741820 0.4171355392 0.0016807456 0.0003926391 0.3151603326 0.0367738891 0.0049015786 0.4430382906 0.0504924623 0.0008169479 0.3266399353 0.0277322814 0.0044167375 0.3411565783 0.0383451285 0.0002469221 0.3484852302 0.0598768328 0.0029358855 0.3891594227 0.0625809800 0.0063489313 0.2606801633 0.0595297687 0.0188137105 0.4261934157 0.0752422493 0.0063418452 0.2755423253 0.0279450469 0.0040105859 0.4132299858 0.0588890245 0.0191183404 0.0107089582 0.0697394885 0.0101280260 0.1297512900 0.0313169336 0.0112872376 0.0709997605 0.0304893147 0.0131223404 0.0220629641 0.0925424935 0.0106671336 0.2615421767 0.1228975508 0.0270765522 0.1569728148 0.0149984124 0.0118694998 0.0996748728 0.0175225268 0.0010326089 0.1288933125 0.0173624153 0.0003803507 0.3636451937 0.0137584655 0.0000844039 0.3449905604 0.0225288276 0.0080657617 0.3778568911 0.0000515788 0.0093420585 0.3812732433 0.0416905844 -0.0004502945 0.1191512017 0.0385461337 0.0251132021 0.4073698453 0.0502568360 0.0005459481 0.3401532559 0.0430742789 0.0016301539 0.4039015991 0.0879516961 0.0008575464 0.4174039457 0.0482361329 0.0146436051 0.2630415596 0.0642480135 0.0098554283 0.3298503010 0.0263857139 0.0163927910 0.2868004003 0.0461903499 0.0148247629 0.2107275761 0.0331338860 0.0267542463 0.1954645721 0.0647516543 0.0284680981 0.0426223356 0.0753813192 0.0102018681 0.2606617429 0.0144816717 0.0096971489 0.1930026866 0.0471714398 0.0274642397 0.0726758766 0.0534103564 0.0206626641 0.0875604743 0.0122131038 0.0048397325 0.2003843352 0.0320377548 0.0055877749 0.1417562490 0.0127271468 0.0005895590 0.3494581981 -0.0000022846 0.0118242381 0.4299924768 0.0003163798 0.0065423500 0.4196183768 0.0004283563 0.0040946458 0.3631477475 0.0076600331 0.0042539485 0.2905372705 0.0239196751 0.0023349811 0.0440132854 0.0109594940 0.0045964447 0.0162111534 0.0583266178 0.0007620301 0.3435449011 0.0648600266 0.0083558135 0.4203428596 0.0910035283 0.0006695327 0.3496065463 0.0640083865 0.0004395910 0.3696462461 0.0661317270 0.0127444833 0.3826437999 0.0603852605 0.0200083232 0.4314182497 0.0894490643 0.0159252103 0.4025723138 0.0779623335 0.0243145541 0.0169364198 0.0517201636 0.0056783054 0.0654231157 0.0340326303 0.0131615509 0.4337673350 0.0409751472 0.0045363179 0.0775903959 0.0512401551 0.0138039531 0.1749396420 0.0337946738 0.0154123175 0.1749898201 0.0520788786 0.0104957154 0.1842450720 0.0405014916 0.0001677011 0.3576616818 -0.0004848374 0.0040744525 0.3709828200 0.0136973553 0.0048314854 0.3846942123 0.0105827952 0.0000668692 0.3746551160 0.0291672202 0.0032754649 0.3709239723 0.0492208318 -0.0003538447 0.3702130013 0.0204708714 0.0026691877 0.2825765876 0.0074792084 -0.0004288682 0.3845077769 0.0688998492 0.0005439861 0.4274269761 0.0326295862 0.0141166679 0.3399491870 0.0444685508 0.0127877078 0.4203809337 0.0230312963 0.0000038695 0.2573093645 0.0917103545 0.0215550525 0.2306486662 0.0011368195 0.0000588434 0.2846614005 0.0739723729 0.0248889295 0.1309244497 0.1003442191 0.0270651088 0.3775805640 0.0601690298 0.0124857727 0.0250084640 0.0254046223 0.0191385088 0.4371441917 0.0580504739 0.0168804051 0.1718265363 0.0302832509 0.0007496003 0.1370448318 0.0294303944 -0.0000924448 0.0716845582 0.0410044074 0.0007576050 0.3121835913 0.0327958818 0.0031775443 0.2675820935 0.0270519964 0.0121923802 0.3801966158 0.0062063651 0.0106799275 0.3067730862 0.0424456396 -0.0001041612 0.4064387528 0.0843544285 0.0009780036 0.0730354674 0.0522492988 0.0092385461 0.3577715770 0.0169198056 -0.0001581766 0.4446731094 0.0742360640 0.0007309934 0.4824917171 0.0882505981 0.0009157888 0.2781149498 0.0683037484 0.0033844678 0.4775407973 0.0691258912 0.0105326574 0.3170167215 0.0598433670 0.0158329343 0.2183659172 0.0676030057 0.0142815113 0.1985062464 0.0681166564 0.0258680680 0.0651234725 0.0262635903 0.0008371296 0.2328491613 0.0642533812 0.0057675103 0.3238380847 0.1048922156 0.0193802866 0.4452621548 0.0659271879 0.0148882866 0.1694776166 0.0356011814 0.0103397364 0.1713925937 0.0561018273 0.0103914840 0.1914479570 0.0112248957 0.0001301091 0.3106068402 0.0050553384 0.0108492836 0.0443975366 0.0463792333 0.0066353059 0.2942401791 0.0342672361 0.0054154531 0.3361404916 0.0416220301 -0.0001340816 0.2820073222 0.0265786005 0.0045472716 0.4329272479 0.0675702682 0.0006075323 0.2894769049 0.0490199037 0.0039588980 0.4286246901 0.0424983941 0.0117682244 0.4363862923 0.0840122378 0.0145072329 0.41091135
[...]
      <PointData Scalars="smoothLength">
        <DataArray type="Float32" Name="smoothLength" format="ascii">
 0.0065000000 0.0065000000 0.0065000000 0.0065000000 0.0065000000 0.0065000000 0.0065000000 0.0065000000 0.0065000000 0.0065000000 0.0065000000 0.0065000000 0.0065000000 0.0065000000 0.0065000000 0.0065000000 0.0065000000 0.0065000000 0.0065000000 0.0065000000 0.0065000000 0.0065000000 0.0065000000 0.0065000000 0.0065000000 0.0065000000 0.0065000000 0.0065000000 0.0065000000 0.0065000000 0.0065000000 0.0065000000 0.0065000000 0.0065000000 0.0065000000 0.0065000000 0.0065000000 0.0065000000 0.0065000000 0.0065000000 0.0065000000 0.0065000000 0.0065000000 0.0065000000 0.0065000000 0.0065000000 0.0065000000 0.0065000000 0.0065000000 0.0065000000 0.0065000000 0.0065000000 0.0065000000 0.0065000000 0.0065000000 0.0065000000 0.0065000000 0.0065000000 0.0065000000 0.0065000000 0.0065000000 0.0065000000 0.0065000000 0.0065000000 0.0065000000 0.0065000000 0.0065000000 0.0065000000 0.0065000000 0.0065000000 0.0065000000 0.0065000000 0.0065000000 0.0065000000 0.0065000000 0.0065000000 0.0065000000 0.0065000000 0.0065000000 0.0065000000 0.0065000000 0.0065000000 0.0065000000 0.0065000000 0.0065000000 0.0065000000 0.0065000000 0.0065000000 0.0065000000 0.0065000000 0.0065000000 0.0065000000 0.0065000000 0.0065000000 0.0065000000 0.0065000000 0.0065000000 0.0065000000 0.0065000000 0.0065000000 0.0065000000 0.0065000000 0.0065000000 0.0065000000 0.0065000000 0.0065000000 0.0065000000 0.0065000000 0.0065000000 0.0065000000 0.0065000000 0.0065000000 0.0065000000 0.0065000000 0.0065000000 0.0065000000 0.0065000000 0.0065000000 0.0065000000 0.0065000000 0.0065000000 0.0065000000 0.0065000000 0.0065000000 0.0065000000 0.0065000000 0.0065000000 0.0065000000 0.0065000000 0.0065000000 0.0065000000 0.0065000000 0.0065000000 0.0065000000 0.0065000000 0.0065000000 0.0065000000 0.0065000000 0.0065000000 0.0065000000 0.0065000000 0.0065000000 0.0065000000 0.0065000000 0.0065000000 0.0065000000 0.0065000000 0.0065000000 0.0065000000 0.0065000000 0.0065000000 0.0065000000 0.0065000000 0.0065000000 0.0065000000 0.0065000000 0.0065000000 0.0065000000 0.0065000000 0.0065000000 0.0065000000 0.0065000000 0.0065000000 0.0065000000 0.0065000000 0.0065000000 0.0065000000 0.0065000000 0.0065000000 0.0065000000 0.0065000000 0.0065000000 0.0065000000 0.0065000000 0.0065000000 0.0065000000 0.0065000000 0.0065000000 0.0065000000 0.0065000000 0.0065000000 0.0065000000 0.0065000000 0.0065000000 0.0065000000 0.0065000000 0.0065000000 0.0065000000 0.0065000000 0.0065000000 0.0065000000 0.0065000000 0.0065000000 0.0065000000 0.0065000000 0.0065000000 0.0065000000 0.0065000000 0.0065000000 0.0065000000 0.0065000000 0.0065000000 0.0065000000 0.0065000000 0.0065000000 0.0065000000 0.0065000000 0.0065000000 0.0065000000 0.0065000000 0.0065000000 0.0065000000 0.0065000000 0.0065000000 0.0065000000 0.0065000000 0.0065000000 0.0065000000 0.0065000000 0.0065000000 0.0065000000 0.0065000000 0.0065000000 0.0065000000 0.0065000000 0.0065000000 0.0065000000 0.0065000000 0.0065000000 0.0065000000 0.0065000000 0.0065000000 0.0065000000 0.0065000000 0.0065000000 0.0065000000 0.0065000000 0.0065000000 0.0065000000 0.0065000000 0.0065000000 0.0065000000 0.0065000000 0.0065000000 0.0065000000 0.0065000000 0.0065000000 0.0065000000 0.0065000000 0.0065000000 0.0065000000 0.0065000000 0.0065000000 0.0065000000 0.0065000000 0.0065000000 0.0065000000 0.0065000000 0.0065000000 0.0065000000 0.0065000000 0.0065000000 0.0065000000 0.0065000000 0.0065000000 0.0065000000 0.0065000000 0.0065000000 0.0065000000 0.0065000000 0.0065000000 0.0065000000 0.0065000000 0.0065000000 0.0065000000 0.0065000000 0.0065000000 0.0065000000 0.0065000000 0.0065000000 0.0065000000 0.0065000000 0.0065000000 0.0065000000 0.0065000000 0.0065000000 0.0065000000 0.0065000000 0.0065000000 0.0065000000 0.0065000000 0.0065000000 0.0065000000 0.0065000000 0.0065000000 0.0065000000 0.0065000000 0.0065000000 0.0065000000 0.0065000000 0.0065000000 0.0065000000 0.0065000000 0.0065000000 0.0065000000 0.0065000000 0.0065000000 0.0065000000 0.0065000000 0.0065000000 0.0065000000 0.0065000000 0.0065000000 0.0065000000 0.0065000000 0.0065000000 0.0065000000 0.0065000000 0.0065000000 0.0065000000 0.0065000000 0.0065000000 0.0065000000 0.0065000000 0.0065000000 0.0065000000 0.0065000000 0.0065000000 0.0065000000 0.0065000000 0.0065000000 0.0065000000 0.0065000000 0.0065000000 0.0065000000 0.0065000000 0.0065000000 0.0065000000 0.0065000000 0.0065000000 0.0065000000 0.0065000000 0.0065000000 0.0065000000 0.0065000000 0.0065000000 0.0065000000 0.0065000000 0.0065000000 0.0065000000 0.0065000000 0.0065000000 0.0065000000 0.0065000000 0.0065000000 0.0065000000 0.0065000000 0.0065000000 0.0065000000 0.0065000000 0.0065000000 0.0065000000 0.0065000000 0.0065000000 0.0065000000 0.0065000000 0.0065000000 0.0065000000 0.0065000000 0.0065000000 0.0065000000 0.0065000000 0.0065000000 0.0065000000 0.0065000000 0.0065000000 0.0065000000 0.0065000000 0.0065000000 0.0065000000 0.0065000000 0.0065000000 0.0065000000 0.0065000000 0.0065000000 0.0065000000 0.0065000000 0.0065000000 0.0065000000 0.0065000000 0.0065000000 0.0065000000 0.0065000000 0.0065000000 0.0065000000 0.0065000000 0.0065000000 0.0065000000 0.0065000000 0.0065000000 0.0065000000 0.0065000000 0.0065000000 0.0065000000 0.0065000000 0.0065000000 0.0065000000 0.0065000000 0.0065000000 0.0065000000 0.0065000000 0.0065000000 0.0065000000 0.0065000000 0.0065000000 0.0065000000 0.0065000000 0.0065000000 0.0065000000 0.0065000000 0.0065000000 0.0065000000 0.0065000000 0.0065000000 0.0065000000 0.0065000000 0.0065000000 0.0065000000 0.0065000000 0.0065000000 0.0065000000 0.0065000000 0.0065000000 0.0065000000 0.0065000000 0.0065000000 0.0065000000 0.0065000000 0.0065000000 0.0065000000 0.0065000000 0.0065000000 0.0065000000 0.0065000000 0.0065000000 0.0065000000 0.0065000000 0.0065000000 0.0065000000 0.0065000000 0.0065000000 0.0065000000 0.0065000000 0.0065000000 0.0065000000 0.0065000000 0.0065000000 0.0065000000 0.0065000000 0.0065000000 0.0065000000 0.0065000000 0.0065000000 0.0065000000 0.0065000000 0.0065000000 0.0065000000 0.0065000000 0.0065000000 0.0065000000 0.0065000000 0.0065000000 0.0065000000 0.0065000000 0.0065000000 0.0065000000 0.0065000000 0.0065000000 0.0065000000 0.0065000000 0.0065000000 0.0065000000 0.0065000000 0.0065000000 0.0065000000 0.0065000000 0.0065000000 0.0065000000 0.0065000000 0.0065000000 0.0065000000 0.0065000000 0.0065000000 0.0065000000 0.0065000000 0.0065000000 0.0065000000 0.0065000000 0.0065000000 0.0065000000 0.0065000000 0.0065000000 0.0065000000 0.0065000000 0.0065000000 0.0065000000 0.0065000000 0.0065000000 0.0065000000 0.0065000000 0.0065000000 0.0065000000 0.0065000000 0.0065000000 0.0065000000 0.0065000000 0.0065000000 0.0065000000 0.0065000000 0.0065000000 0.0065000000 0.0065000000 0.0065000000 0.0065000000 0.0065000000 0.0065000000 0.0065000000 0.0065000000 0.0065000000 0.0065000000 0.0065000000 0.0065000000 0.0065000000 0.0065000000 0.0065000000 0.0065000000 0.0065000000 0.0065000000 0.0065000000 0.0065000000 0.0065000000 0.0065000000 0.0065000000 0.0065000000 0.0065000000 0.0065000000 0.0065000000 0.0065000000 0.0065000000 0.0065000000 0.0065000000 0.0065000000 0.0065000000 0.0065000000 0.0065000000 0.0065000000 0.0065000000 0.0065000000 0.0065000000 0.0065000000 0.0065000000 0.0065000000 0.0065000000 0.0065000000 0.0065000000 0.0065000000 0.0065000000 0.0065000000 0.0065000000 0.0065000000 0.0065000000 0.0065000000 0.0065000000 0.0065000000 0.0065000000 0.0065000000 0.0065000000 0.0065000000 0.0065000000 0.0065000000 0.0065000000 0.0065000000 0.0065000000 0.0065000000 0.0065000000 0.0065000000 0.0065000000 0.0065000000 0.0065000000 0.0065000000 0.0065000000 0.0065000000 0.0065000000 0.0065000000 0.0065000000 0.0065000000 0.0065000000 0.0065000000 0.0065000000 0.0065000000 0.0065000000 0.0065000000 0.0065000000 0.0065000000 0.0065000000 0.0065000000 0.0065000000 0.0065000000 0.0065000000 0.0065000000 0.0065000000 0.0065000000 0.0065000000 0.0065000000 0.0065000000 0.0065000000 0.0065000000 0.0065000000 0.0065000000 0.0065000000 0.0065000000 0.0065000000 0.0065000000 0.0065000000 0.0065000000 0.0065000000 0.0065000000 0.0065000000 0.0065000000 0.0065000000 0.0065000000 0.0065000000 0.0065000000 0.0065000000 0.0065000000 0.0065000000 0.0065000000 0.0065000000 0.0065000000 0.0065000000 0.0065000000 0.0065000000 0.0065000000 0.0065000000 0.0065000000 0.0065000000 0.0065000000 0.0065000000 0.0065000000 0.0065000000 0.0065000000 0.0065000000 0.0065000000 0.0065000000 0.0065000000 0.0065000000 0.0065000000 0.0065000000 0.0065000000 0.0065000000 0.0065000000 0.0065000000 0.0065000000 0.0065000000 0.0065000000 0.0065000000 0.0065000000 0.0065000000 0.0065000000 0.0065000000 0.0065000000 0.0065000000 0.0065000000 0.0065000000 0.0065000000 0.0065000000 0.0065000000 0.0065000000 0.0065000000 0.0065000000 0.0065000000 0.0065000000 0.0065000000 0.0065000000 0.0065000000 0.0065000000 0.0065000000 0.0065000000 0.0065000000 0.0065000000 0.0065000000 0.0065000000 0.0065000000 0.0065000000 0.0065000000 0.0065000000 0.0065000000 0.0065000000 0.0065000000 0.0065000000 0.0065000000 0.0065000000 0.0065000000 0.0065000000 0.0065000000 0.0065000000 0.0065000000 0.0065000000 0.0065000000 0.0065000000 0.0065000000 0.0065000000 0.0065000000 0.0065000000 0.0065000000 0.0065000000 0.0065000000 0.0065000000 0.0065000000 0.0065000000 0.0065000000 0.0065000000 0.0065000000 0.0065000000 0.0065000000 0.0065000000 0.0065000000 0.0065000000 0.0065000000 0.0065000000 0.0065000000 0.0065000000 0.0065000000 0.0065000000 0.0065000000 0.0065000000 0.0065000000 0.0065000000 0.0065000000 0.0065000000 0.0065000000 0.0065000000 0.0065000000 0.0065000000 0.0065000000 0.0065000000 0.0065000000 0.0065000000 0.0065000000 0.0065000000 0.0065000000 0.0065000000 0.0065000000 0.0065000000 0.0065000000 0.0065000000 0.0065000000 0.0065000000 0.0065000000 0.0065000000 0.0065000000 0.0065000000 0.0065000000 0.0065000000 0.0065000000 0.0065000000 0.0065000000 0.0065000000 0.0065000000 0.0065000000 0.0065000000 0.0065000000 0.0065000000 0.0065000000 0.0065000000 0.0065000000 0.0065000000 0.0065000000 0.0065000000 0.0065000000 0.0065000000 0.0065000000 0.0065000000 0.0065000000 0.0065000000 0.0065000000 0.0065000000 0.0065000000 0.0065000000 0.0065000000 0.0065000000 0.0065000000 0.0065000000 0.0065000000 0.0065000000 0.0065000000 0.0065000000 0.0065000000 0.0065000000 0.0065000000 0.0065000000 0.0065000000 0.0065000000 0.0065000000 0.0065000000 0.0065000000 0.0065000000 0.0065000000 0.0065000000 0.0065000000 0.0065000000 0.0065000000 0.0065000000 0.0065000000 0.0065000000 0.0065000000 0.0065000000 0.0065000000 0.0065000000 0.0065000000 0.0065000000 0.0065000000 0.0065000000 0.0065000000 0.0065000000 0.0065000000 0.0065000000 0.0065000000 0.0065000000 0.0065000000 0.0065000000 0.0065000000 0.0065000000 0.0065000000 0.0065000000 0.0065000000 0.0065000000 0.0065000000 0.0065000000 0.0065000000 0.0065000000 0.0065000000 0.0065000000 0.0065000000 0.0065000000 0.0065000000 0.0065000000 0.0065000000 0.0065000000 0.0065000000 0.0065000000 0.0065000000 0.0065000000 0.0065000000 0.0065000000 0.0065000000 0.0065000000 0.0065000000 0.0065000000 0.0065000000 0.0065000000 0.0065000000 0.0065000000 0.0065000000 0.0065000000 0.0065000000 0.0065000000 0.0065000000 0.0065000000 0.0065000000 0.0065000000 0.0065000000 0.0065000000 0.0065000000 0.0065000000 0.0065000000 0.0065000000 0.0065000000 0.0065000000 0.0065000000 0.0065000000 0.0065000000 0.0065000000 0.0065000000 0.0065000000 0.0065000000 0.0065000000 0.0065000000 0.0065000000 0.0065000000 0.0065000000 0.0065000000 0.0065000000 0.0065000000 0.0065000000 0.0065000000 0.0065000000 0.0065000000 0.0065000000 0.0065000000 0.0065000000 0.0065000000 0.0065000000 0.0065000000 0.0065000000 0.0065000000 0.0065000000 0.0065000000 0.0065000000 0.0065000000 0.0065000000 0.0065000000 0.0065000000 0.0065000000 0.0065000000 0.0065000000 0.0065000000 0.0065000000 0.0065000000 0.0065000000 0.0065000000 0.0065000000 0.0065000000 0.0065000000 0.0065000000 0.0065000000 0.0065000000 0.0065000000 0.0065000000 0.0065000000 0.0065000000 0.0065000000 0.0065000000 0.0065000000 0.0065000000 0.0065000000 0.0065000000 0.0065000000 0.0065000000 0.0065000000 0.0065000000 0.0065000000 0.0065000000 0.0065000000 0.0065000000 0.0065000000 0.0065000000 0.0065000000 0.0065000000 0.0065000000 0.0065000000 0.0065000000 0.0065000000 0.0065000000 0.0065000000 0.0065000000 0.0065000000 0.0065000000 0.0065000000 0.0065000000 0.0065000000 0.0065000000 0.0065000000 0.0065000000 0.0065000000 0.0065000000 0.0065000000 0.0065000000 0.0065000000 0.0065000000 0.0065000000 0.0065000000 0.0065000000 0.0065000000 0.0065000000 0.0065000000 0.0065000000 0.0065000000 0.0065000000 0.0065000000 0.0065000000 0.0065000000 0.0065000000 0.0065000000 0.0065000000 0.0065000000 0.0065000000 0.0065000000 0.0065000000 0.0065000000 0.0065000000 0.0065000000 0.0065000000 0.0065000000 0.0065000000 0.0065000000 0.0065000000 0.0065000000 0.0065000000 0.0065000000 0.0065000000 0.0065000000 0.0065000000 0.0065000000 0.0065000000 0.0065000000 0.0065000000 0.0065000000 0.0065000000 0.0065000000 0.0065000000 0.0065000000 0.0065000000 0.0065000000 0.0065000000 0.0065000000 0.0065000000 0.0065000000 0.0065000000 0.0065000000 0.0065000000 0.0065000000 0.0065000000 0.0065000000 0.0065000000 0.0065000000 0.0065000000 0.0065000000 0.0065000000 0.0065000000 0.0065000000 0.0065000000 0.0065000000 0.0065000000 0.0065000000 0.0065000000 0.0065000000 0.0065000000 0.0065000000 0.0065000000 0.0065000000 0.0065000000 0.0065000000 0.0065000000 0.0065000000 0.0065000000 0.0065000000 0.0065000000 0.0065000000 0.0065000000 0.0065000000 0.0065000000 0.0065000000 0.0065000000 0.0065000000 0.0065000000 0.0065000000 0.0065000000 0.0065000000 0.0065000000 0.0065000000 0.0065000000 0.0065000000 0.0065000000 0.0065000000 0.0065000000 0.0065000000 0.0065000000 0.0065000000 0.0065000000 0.0065000000 0.0065000000 0.0065000000 0.0065000000 0.0065000000 0.0065000000 0.0065000000 0.0065000000 0.0065000000 0.0065000000 0.0065000000 0.0065000000 0.0065000000 0.0065000000 0.0065000000 0.0065000000 0.0065000000 0.0065000000 0.0065000000 0.0065000000 0.0065000000 0.0065000000 0.0065000000 0.0065000000 0.0065000000 0.0065000000 0.0065000000 0.0065000000 0.0065000000 0.0065000000 0.0065000000 0.0065000000 0.0065000000 0.0065000000 0.0065000000 0.0065000000 0.0065000000 0.0065000000 0.0065000000 0.0065000000 0.0065000000 0.0065000000 0.0065000000 0.0065000000 0.0065000000 0.0065000000 0.0065000000 0.0065000000 0.0065000000 0.0065000000 0.0065000000 0.0065000000 0.0065000000 0.0065000000 0.0065000000 0.0065000000 0.0065000000 0.0065000000 0.0065000000 0.0065000000 0.0065000000 0.0065000000 0.0065000000 0.0065000000 0.0065000000 0.0065000000 0.0065000000 0.0065000000 0.0065000000 0.0065000000 0.0065000000 0.0065000000 0.0065000000 0.0065000000 0.0065000000 0.0065000000 0.0065000000 0.0065000000 0.0065000000 0.0065000000 0.0065000000 0.0065000000 0.0065000000 0.0065000000 0.0065000000 0.0065000000 0.0065000000 0.0065000000 0.0065000000 0.0065000000 0.0065000000 0.0065000000 0.0065000000 0.0065000000 0.0065000000 0.0065000000 0.0065000000 0.0065000000 0.0065000000 0.0065000000 0.0065000000 0.0065000000 0.0065000000 0.0065000000 0.0065000000 0.0065000000 0.0065000000 0.0065000000 0.0065000000 0.0065000000 0.0065000000 0.0065000000 0.0065000000 0.0065000000 0.0065000000 0.0065000000 0.0065000000 0.0065000000 0.0065000000 0.0065000000 0.0065000000 0.0065000000 0.0065000000 0.0065000000 0.0065000000 0.0065000000 0.0065000000 0.0065000000 0.0065000000 0.0065000000 0.0065000000 0.0065000000 0.0065000000 0.0065000000 0.0065000000 0.0065000000 0.0065000000 0.0065000000 0.0065000000 0.0065000000 0.0065000000 0.0065000000 0.0065000000 0.0065000000 0.0065000000 0.0065000000 0.0065000000 0.0065000000 0.0065000000 0.0065000000 0.0065000000 0.0065000000 0.0065000000 0.0065000000 0.0065000000 0.0065000000 0.0065000000 0.0065000000 0.0065000000 0.0065000000 0.0065000000 0.0065000000 0.0065000000 0.0065000000 0.0065000000 0.0065000000 0.0065000000 0.0065000000 0.0065000000 0.0065000000 0.0065000000 0.0065000000 0.0065000000 0.0065000000 0.0065000000 0.0065000000 0.0065000000 0.0065000000 0.0065000000 0.0065000000 0.0065000000 0.0065000000 0.0065000000 0.0065000000 0.0065000000 0.0065000000 0.0065000000 0.0065000000 0.0065000000 0.0065000000 0.0065000000 0.0065000000 0.0065000000 0.0065000000 0.0065000000 0.0065000000 0.0065000000 0.0065000000 0.0065000000 0.0065000000 0.0065000000 0.0065000000 0.0065000000 0.0065000000 0.0065000000 0.0065000000 0.0065000000 0.0065000000 0.0065000000 0.0065000000 0.0065000000 0.0065000000 0.0065000000 0.0065000000 0.0065000000 0.0065000000 0.0065000000 0.0065000000 0.0065000000 0.0065000000 0.0065000000 0.0065000000 0.0065000000 0.0065000000 0.0065000000 0.0065000000 0.0065000000 0.0065000000 0.0065000000 0.0065000000 0.0065000000 0.0065000000 0.0065000000 0.0065000000 0.0065000000 0.0065000000 0.0065000000 0.0065000000 0.0065000000 0.0065000000 0.0065000000 0.0065000000 0.0065000000 0.0065000000 0.0065000000 0.0065000000 0.0065000000 0.0065000000 0.0065000000 0.0065000000 0.0065000000 0.0065000000 0.0065000000 0.0065000000 0.0065000000 0.0065000000 0.0065000000 0.0065000000 0.0065000000 0.0065000000 0.0065000000 0.0065000000 0.0065000000 0.0065000000 0.0065000000 0.0065000000 0.0065000000 0.0065000000 0.0065000000 0.0065000000 0.0065000000 0.0065000000 0.0065000000 0.0065000000 0.0065000000 0.0065000000 0.0065000000 0.0065000000 0.0065000000 0.0065000000 0.0065000000 0.0065000000 0.0065000000 0.0065000000 0.0065000000 0.0065000000 0.0065000000 0.0065000000 0.0065000000 0.0065000000 0.0065000000 0.0065000000 0.0065000000 0.0065000000 0.0065000000 0.0065000000 0.0065000000 0.0065000000 0.0065000000 0.0065000000 0.0065000000 0.0065000000 0.0065000000 0.0065000000 0.0065000000 0.0065000000 0.0065000000 0.0065000000 0.0065000000 0.0065000000 0.0065000000 0.0065000000 0.0065000000 0.0065000000 0.0065000000 0.0065000000 0.0065000000 0.0065000000 0.0065000000 0.0065000000 0.0065000000 0.0065000000 0.0065000000 0.0065000000 0.0065000000 0.0065000000 0.0065000000 0.0065000000 0.0065000000 0.0065000000 0.0065000000 0.0065000000 0.0065000000 0.0065000000 0.0065000000 0.0065000000 0.0065000000 0.0065000000 0.0065000000 0.0065000000 0.0065000000 0.0065000000 0.0065000000 0.0065000000 0.0065000000 0.0065000000 0.0065000000 0.0065000000 0.0065000000 0.0065000000 0.0065000000 0.0065000000 0.0065000000 0.0065000000 0.0065000000 0.0065000000 0.0065000000 0.0065000000 0.0065000000 0.0065000000 0.0065000000 0.0065000000 0.0065000000 0.0065000000 0.0065000000 0.0065000000 0.0065000000 0.0065000000 0.0065000000 0.0065000000 0.0065000000 0.0065000000 0.0065000000 0.0065000000 0.0065000000 0.0065000000 0.0065000000 0.0065000000 0.0065000000 0.0065000000 0.0065000000 0.0065000000 0.0065000000 0.0065000000 0.0065000000 0.0065000000 0.0065000000 0.0065000000 0.0065000000 0.0065000000 0.0065000000 0.0065000000 0.0065000000 0.0065000000 0.0065000000 0.0065000000 0.0065000000 0.0065000000 0.0065000000 0.0065000000 0.0065000000 0.0065000000 0.0065000000 0.0065000000 0.0065000000 0.0065000000 0.0065000000 0.0065000000 0.0065000000 0.0065000000 0.0065000000 0.0065000000 0.0065000000 0.0065000000 0.0065000000 0.0065000000 0.0065000000 0.0065000000 0.0065000000 0.0065000000 0.0065000000 0.0065000000 0.0065000000 0.0065000000 0.0065000000 0.0065000000 0.0065000000 0.0065000000 0.0065000000 0.0065000000 0.0065000000 0.0065000000 0.0065000000 0.0065000000 0.0065000000 0.0065000000 0.0065000000 0.0065000000 0.0065000000 0.0065000000 0.0065000000 0.0065000000 0.0065000000 0.0065000000 0.0065000000 0.0065000000 0.0065000000 0.0065000000 0.0065000000 0.0065000000 0.0065000000 0.0065000000 0.0065000000 0.0065000000 0.0065000000 0.0065000000 0.0065000000 0.0065000000 0.0065000000 0.006500000