<?xml version="1.0"?>
<VTKFile type="UnstructuredGrid" version="0.1" byte_order="LittleEndian">
  <UnstructuredGrid>
    <FieldData>
      <DataArray type="Float32" Name="TIME"  NumberOfTuples="1" format="ascii"> 4.3969715507 </DataArray>
      <DataArray type="Int32"   Name="STEP"  NumberOfTuples="1" format="ascii"> 58960 </DataArray>
    </FieldData>
    <Piece NumberOfPoints="18081" NumberOfCells="18081">
      <Points>
        <DataArray type="Float32" NumberOfComponents="3" format="ascii">
 0.1353463631 0.0807867181 0.0128363865 0.0479331362 0.0995356873 0.0069258408 0.1064235732 0.0346923261 0.0078998557 0.0217969616 0.0177990152 0.0104037852 0.0565985084 0.0254712890 0.0093451087 0.0014313065 0.0238052947 0.0137438482 0.4874122505 0.0206072527 0.0144824284 0.4241228807 0.0419047362 0.0111027025 0.4990188050 0.0079019711 0.0104455727 0.4323364003 0.0322729996 0.0168424495 0.4479563427 0.0136469584 0.0242591074 0.4980505351 0.0405077779 0.0173896241 0.4830381701 0.0187707216 0.0296535580 0.3855843133 0.0219852289 0.0269552915 0.4619982425 0.0555624230 0.0267883219 0.4159737318 0.0237500946 0.0383355691 0.4983060858 0.0275058603 0.0242084760 0.3218084180 0.0812495570 0.0307569773 0.3865776252 0.0431145671 0.0379743926 0.2059981360 0.0013003064 0.0155760966 0.4863699324 0.0037957737 0.0354873116 0.1238598917 0.1008877089 0.0011133566 0.0502878305 0.0926412119 0.0184075894 0.0714078691 0.0410919383 0.0090863026 0.0570079314 0.0468733378 0.0011099143 0.0103341914 0.0580865430 0.0045149210 0.4454528308 0.0029412435 0.0225410137 0.4931210521 0.0075713371 0.0127604238 0.4575838806 0.0255225877 0.0060884704 0.4770829980 0.0259991529 0.0307396001 0.4913514322 0.0265737036 0.0059861422 0.3990874287 0.0685753041 0.0233840820 0.4965921397 0.0321406975 0.0285712523 0.3950020914 0.0641295477 0.0235472721 0.4879414418 0.0334122771 0.0146360430 0.3688312412 0.0280181760 0.0237989128 0.4697169217 0.0263257713 0.0061291176 0.3831752459 0.0371518102 0.0354305914 0.0936593649 0.0636153964 0.0193410000 0.0118346078 0.0679023621 0.0204027275 0.3908813050 0.0243332608 0.0170814395 0.2816986842 0.0974514557 0.0294273028 0.0873536461 0.0070476494 0.0094100402 0.0054037854 0.0977257241 0.0009567520 0.0991564069 0.0604223303 0.0005491691 0.2435366048 0.0681972240 0.0178310932 0.4242710869 0.0081509343 0.0009425748 0.3932201471 0.0401716128 0.0170201779 0.4938765322 0.0326893012 0.0007350034 0.4995230749 0.0781958510 0.0116417669 0.4949999189 0.0898649117 0.0250944012 0.4939792952 0.0157348610 0.0016240199 0.3261441912 0.0577959743 0.0308211416 0.3991851579 0.0734540429 0.0057631155 0.4472138724 0.0435348567 0.0301721038 0.4575253237 0.0514671556 0.0231686709 0.4425013947 0.0319124083 0.0007852029 0.4532958706 0.0617063670 0.0007500066 0.4187036733 0.0258057744 0.0298239193 0.0741449861 0.0818489796 0.0108341760 0.3974436012 0.0614139980 0.0375329306 0.4911002296 0.0725668158 0.0220097543 0.3938816727 0.0485555479 0.0218938778 0.0843874634 0.0524913282 0.0007185863 0.0300564938 0.0064433609 0.0054358380 0.1216381978 0.0554786089 0.0093702059 0.0561433003 0.0355844410 0.0064425619 0.4218230154 0.0183794007 0.0072676206 0.4685119203 0.0168993250 0.0060078814 0.4805390359 0.0127747269 0.0007463414 0.3575125780 0.0283198471 0.0272993074 0.3566403064 0.0025234964 0.0254636294 0.4865687768 0.0612675072 0.0087808885 0.3947850239 0.0813739506 0.0294387179 0.3523478857 0.0671742363 0.0055663389 0.4475652885 0.0190645899 0.0143303941 0.4270832015 0.0092432243 0.0054634851 0.2976776723 0.0400282274 0.0091788113 0.3619693830 0.0351639232 0.0303837249 0.3359707932 0.0185001634 0.0313964920 0.0988380147 0.0808002559 0.0138155629 0.1174679459 0.0972370194 0.0091524817 0.0679696633 0.0791930595 0.0185159734 0.4648909316 0.0895148963 0.0124551703 0.1765259161 0.0238356506 0.0028194624 0.1884619132 0.0126391675 0.0007173564 0.0618870201 0.0678521845 0.0073120155 0.3782018840 0.0008709484 0.0148076669 0.4107166667 0.0282796442 0.0010323262 0.4378846827 0.0035354546 0.0196641592 0.4661048569 0.0499186362 0.0060553208 0.4447405170 0.0127796500 0.0075189618 0.4389539289 0.0102004387 0.0084872954 0.4054101879 0.0318113836 0.0098118764 0.4768856812 0.0711169467 0.0069827119 0.3557308952 0.0777252855 0.0195894625 0.3332071269 0.0472548038 0.0153285628 0.4209151056 0.0752796589 0.0058198748 0.2872943901 0.0165427641 0.0157537549 0.3494706293 0.0604896293 0.0328076375 0.4492474112 0.0120444922 0.0355801385 0.3609303128 0.0420073094 0.0354479525 0.2965864215 0.0594581798 0.0233271388 0.4121766391 0.0124940556 0.0188855849 0.3168710361 0.0560459980 0.0296127514 0.1587851690 0.0114464498 0.0137714554 0.0676973983 0.0404828502 0.0053719360 0.0915124115 0.0619949050 0.0009171916 0.0080171926 0.0899613693 0.0055553328 0.4638674440 0.0094285949 0.0034348697 0.4886781321 0.0448354579 0.0014974451 0.3592541347 0.0491861866 0.0066319869 0.3731838135 0.0185766759 0.0232808331 0.2583701532 0.0148970191 0.0219450159 0.4154054829 0.0609511223 0.0049585002 0.3986476904 0.0494897295 0.0078201327 0.3638154698 0.0604688745 0.0062843921 0.3552523535 0.0689368562 0.0151075190 0.3070090371 0.0778922598 0.0301469719 0.3635129411 0.0510939234 0.0224003084 0.3454366545 0.0680343268 0.0207863597 0.3303807400 0.0013541351 0.0219676378 0.1575102581 0.0463291870 0.0137575602 0.3920090055 0.0033287619 0.0004514048 0.3827156157 0.0171476293 0.0366880858 0.4656306712 0.0643347097 0.0207144222 0.1578622460 0.0228235012 0.0006698883 0.1946662829 0.0030270009 0.0093788769 0.0637510653 0.0534734218 0.0007586727 0.3984044776 0.0278854118 0.0058624202 0.4191984275 0.0269237166 0.0007383615 0.4642144885 0.0033944800 0.0005719683 0.3518450796 0.0470669164 0.0007824066 0.4621512003 0.0481694943 0.0015282873 0.3750799451 0.0296063431 0.0071407333 0.3795219573 0.0388532135 0.0070531517 0.3761778460 0.0605267104 0.0126089285 0.4107946711 0.0600704096 0.0079883075 0.2893750756 0.0440563079 0.0216506620 0.4402733145 0.0768322543 0.0088346035 0.3270335587 0.0212931864 0.0056653773 0.4190605127 0.0644299410 0.0262429159 0.0330532665 0.0960176731 0.0096665347 0.1209698520 0.0154123599 0.0097134071 0.0655546427 0.0547352468 0.0183243452 0.0822878181 0.1014367272 0.0130892584 0.2966330195 0.1228813531 0.0293542655 0.1387052343 0.0069350916 0.0074596398 0.0419361573 0.0192529102 0.0008048464 0.0832970606 0.0112524529 0.0007942825 0.4170021209 0.0122596141 0.0010420849 0.3894904176 0.0314866382 0.0114819705 0.4187446837 0.0053382338 0.0198862190 0.4148806950 0.0531204741 0.0007230395 0.1573022352 0.0169424011 0.0253764572 0.4337258522 0.0521620567 0.0006604933 0.3763424073 0.0473238529 0.0012107856 0.4479470086 0.0921816731 0.0005951139 0.4141423756 0.0523857606 0.0202189361 0.2885522016 0.0563392627 0.0090345827 0.3705421849 0.0353918153 0.0236763455 0.3124759390 0.0343005111 0.0121377979 0.2796374583 0.0176770858 0.0294016157 0.2532001551 0.0621394131 0.0297639585 0.1041253810 0.0819648329 0.0184411411 0.3345478437 0.0041968115 0.0051804607 0.2443860414 0.0366675289 0.0221012008 0.1009632901 0.0458390235 0.0243423708 0.0296538622 0.0226798314 0.0056357593 0.2238928564 0.0297473734 0.0051279985 0.0977505946 0.0089797576 0.0008018955 0.4101631416 0.0017574803 0.0234662162 0.4565241266 0.0074793876 0.0200922494 0.4575606854 0.0014709463 0.0082293115 0.4165496763 0.0100604257 0.0119964160 0.3500187964 0.0215316063 0.0005956586 0.0124237312 0.0335501240 0.0074168961 0.0358210575 0.0834631191 0.0011320299 0.3565590882 0.0666011620 0.0094224892 0.4341302473 0.0781185622 0.0108239410 0.3803361439 0.0678078197 0.0017210044 0.3800612810 0.0727706542 0.0112148689 0.3880060073 0.0739478068 0.0299100734 0.4341693934 0.0976793140 0.0241550823 0.4355829689 0.0878657258 0.0372414245 0.0372437927 0.0821176025 0.0075067047 0.0315671058 0.0549772367 0.0184459003 0.4495544871 0.0389776621 0.0075068623 0.0851373403 0.0472011733 0.0144384620 0.1939153852 0.0193580622 0.0078367252 0.1898558456 0.0426034227 0.0098611373 0.1845983270 0.0372455847 0.0005200882 0.4203200613 0.0011496123 0.0104039120 0.4178568217 0.0146131037 0.0064245855 0.4320644430 0.0171550449 0.0006687480 0.4127758395 0.0384010922 0.0063548325 0.3989381616 0.0523295426 0.0018070668 0.4126405592 0.0331928873 0.0083209036 0.3531594366 0.0101507719 0.0007896053 0.4139179420 0.0729741269 0.0005312729 0.4245877004 0.0341007508 0.0223650175 0.3565231389 0.0465858225 0.0191433883 0.4528491935 0.0286626127 0.0007245187 0.2934490586 0.0834707664 0.0232806439 0.2723011585 0.0002838878 0.0017464791 0.2987301772 0.0677322420 0.0279172580 0.1960654647 0.0901760876 0.0275747685 0.3872535391 0.0620373854 0.0187463007 0.0122820296 0.0473441080 0.0237358595 0.4287346702 0.0533017763 0.0269248382 0.1676948196 0.0275212773 0.0009003219 0.1027430277 0.0221249158 0.0005973277 0.0521754801 0.0449786013 0.0006320675 0.3610391363 0.0347407106 0.0100145883 0.3236648768 0.0185696528 0.0093482509 0.4233401703 0.0100424797 0.0110180104 0.3398180200 0.0467340352 0.0006172633 0.4511764746 0.0937536616 0.0035999985 0.0917188783 0.0441005366 0.0151953479 0.4085856051 0.0211364062 0.0070795181 0.4729248207 0.0924918867 0.0007796394 0.4988895601 0.0808154874 0.0067347154 0.2946616979 0.0616417294 0.0007582103 0.4782525538 0.0746990922 0.0155462917 0.3325634686 0.0577290185 0.0168508821 0.2451283791 0.0611211681 0.0105487324 0.2492895375 0.0647259859 0.0225777265 0.0407691719 0.0386584955 0.0010073617 0.2498356478 0.0556901556 0.0049284474 0.3432321901 0.1070468150 0.0251397131 0.4437633803 0.0579600923 0.0173161893 0.1854212451 0.0288799242 0.0075273060 0.1967898777 0.0438947438 0.0073127721 0.1937690560 0.0121664660 0.0009150864 0.3840958985 0.0103725784 0.0142779804 0.0658404658 0.0644535622 0.0106087009 0.3370735450 0.0379886759 0.0061405360 0.3716509269 0.0473619697 0.0013108446 0.3391106557 0.0228438368 0.0011250594 0.4489388420 0.0670984669 0.0051581711 0.3174624452 0.0451987363 0.0054878823 0.4418797739 0.0473700036 0.0206107693 0.4390154900 0.0718400558 0.0224370705 0.4110628134 0.0434039
[...]
      <PointData Scalars="smoothLength">
        <DataArray type="Float32" Name="smoothLength" format="ascii">
 0.0065000000 0.0065000000 0.0065000000 0.0065000000 0.0065000000 0.0065000000 0.0065000000 0.0065000000 0.0065000000 0.0065000000 0.0065000000 0.0065000000 0.0065000000 0.0065000000 0.0065000000 0.0065000000 0.0065000000 0.0065000000 0.0065000000 0.0065000000 0.0065000000 0.0065000000 0.0065000000 0.0065000000 0.0065000000 0.0065000000 0.0065000000 0.0065000000 0.0065000000 0.0065000000 0.0065000000 0.0065000000 0.0065000000 0.0065000000 0.0065000000 0.0065000000 0.0065000000 0.0065000000 0.0065000000 0.0065000000 0.0065000000 0.0065000000 0.0065000000 0.0065000000 0.0065000000 0.0065000000 0.0065000000 0.0065000000 0.0065000000 0.0065000000 0.0065000000 0.0065000000 0.0065000000 0.0065000000 0.0065000000 0.0065000000 0.0065000000 0.0065000000 0.0065000000 0.0065000000 0.0065000000 0.0065000000 0.0065000000 0.0065000000 0.0065000000 0.0065000000 0.0065000000 0.0065000000 0.0065000000 0.0065000000 0.0065000000 0.0065000000 0.0065000000 0.0065000000 0.0065000000 0.0065000000 0.0065000000 0.0065000000 0.0065000000 0.0065000000 0.0065000000 0.0065000000 0.0065000000 0.0065000000 0.0065000000 0.0065000000 0.0065000000 0.0065000000 0.0065000000 0.0065000000 0.0065000000 0.0065000000 0.0065000000 0.0065000000 0.0065000000 0.0065000000 0.0065000000 0.0065000000 0.0065000000 0.0065000000 0.0065000000 0.0065000000 0.0065000000 0.0065000000 0.0065000000 0.0065000000 0.0065000000 0.0065000000 0.0065000000 0.0065000000 0.0065000000 0.0065000000 0.0065000000 0.0065000000 0.0065000000 0.0065000000 0.0065000000 0.0065000000 0.0065000000 0.0065000000 0.0065000000 0.0065000000 0.0065000000 0.0065000000 0.0065000000 0.0065000000 0.0065000000 0.0065000000 0.0065000000 0.0065000000 0.0065000000 0.0065000000 0.0065000000 0.0065000000 0.0065000000 0.0065000000 0.0065000000 0.0065000000 0.0065000000 0.0065000000 0.0065000000 0.0065000000 0.0065000000 0.0065000000 0.0065000000 0.0065000000 0.0065000000 0.0065000000 0.0065000000 0.0065000000 0.0065000000 0.0065000000 0.0065000000 0.0065000000 0.0065000000 0.0065000000 0.0065000000 0.0065000000 0.0065000000 0.0065000000 0.0065000000 0.0065000000 0.0065000000 0.0065000000 0.0065000000 0.0065000000 0.0065000000 0.0065000000 0.0065000000 0.0065000000 0.0065000000 0.0065000000 0.0065000000 0.0065000000 0.0065000000 0.0065000000 0.0065000000 0.0065000000 0.0065000000 0.0065000000 0.0065000000 0.0065000000 0.0065000000 0.0065000000 0.0065000000 0.0065000000 0.0065000000 0.0065000000 0.0065000000 0.0065000000 0.0065000000 0.0065000000 0.0065000000 0.0065000000 0.0065000000 0.0065000000 0.0065000000 0.0065000000 0.0065000000 0.0065000000 0.0065000000 0.0065000000 0.0065000000 0.0065000000 0.0065000000 0.0065000000 0.0065000000 0.0065000000 0.0065000000 0.0065000000 0.0065000000 0.0065000000 0.0065000000 0.0065000000 0.0065000000 0.0065000000 0.0065000000 0.0065000000 0.0065000000 0.0065000000 0.0065000000 0.0065000000 0.0065000000 0.0065000000 0.0065000000 0.0065000000 0.0065000000 0.0065000000 0.0065000000 0.0065000000 0.0065000000 0.0065000000 0.0065000000 0.0065000000 0.0065000000 0.0065000000 0.0065000000 0.0065000000 0.0065000000 0.0065000000 0.0065000000 0.0065000000 0.0065000000 0.0065000000 0.0065000000 0.0065000000 0.0065000000 0.0065000000 0.0065000000 0.0065000000 0.0065000000 0.0065000000 0.0065000000 0.0065000000 0.0065000000 0.0065000000 0.0065000000 0.0065000000 0.0065000000 0.0065000000 0.0065000000 0.0065000000 0.0065000000 0.0065000000 0.0065000000 0.0065000000 0.0065000000 0.0065000000 0.0065000000 0.0065000000 0.0065000000 0.0065000000 0.0065000000 0.0065000000 0.0065000000 0.0065000000 0.0065000000 0.0065000000 0.0065000000 0.0065000000 0.0065000000 0.0065000000 0.0065000000 0.0065000000 0.0065000000 0.0065000000 0.0065000000 0.0065000000 0.0065000000 0.0065000000 0.0065000000 0.0065000000 0.0065000000 0.0065000000 0.0065000000 0.0065000000 0.0065000000 0.0065000000 0.0065000000 0.0065000000 0.0065000000 0.0065000000 0.0065000000 0.0065000000 0.0065000000 0.0065000000 0.0065000000 0.0065000000 0.0065000000 0.0065000000 0.0065000000 0.0065000000 0.0065000000 0.0065000000 0.0065000000 0.0065000000 0.0065000000 0.0065000000 0.0065000000 0.0065000000 0.0065000000 0.0065000000 0.0065000000 0.0065000000 0.0065000000 0.0065000000 0.0065000000 0.0065000000 0.0065000000 0.0065000000 0.0065000000 0.0065000000 0.0065000000 0.0065000000 0.0065000000 0.0065000000 0.0065000000 0.0065000000 0.0065000000 0.0065000000 0.0065000000 0.0065000000 0.0065000000 0.0065000000 0.0065000000 0.0065000000 0.0065000000 0.0065000000 0.0065000000 0.0065000000 0.0065000000 0.0065000000 0.0065000000 0.0065000000 0.0065000000 0.0065000000 0.0065000000 0.0065000000 0.0065000000 0.0065000000 0.0065000000 0.0065000000 0.0065000000 0.0065000000 0.0065000000 0.0065000000 0.0065000000 0.0065000000 0.0065000000 0.0065000000 0.0065000000 0.0065000000 0.0065000000 0.0065000000 0.0065000000 0.0065000000 0.0065000000 0.0065000000 0.0065000000 0.0065000000 0.0065000000 0.0065000000 0.0065000000 0.0065000000 0.0065000000 0.0065000000 0.0065000000 0.0065000000 0.0065000000 0.0065000000 0.0065000000 0.0065000000 0.0065000000 0.0065000000 0.0065000000 0.0065000000 0.0065000000 0.0065000000 0.0065000000 0.0065000000 0.0065000000 0.0065000000 0.0065000000 0.0065000000 0.0065000000 0.0065000000 0.0065000000 0.0065000000 0.0065000000 0.0065000000 0.0065000000 0.0065000000 0.0065000000 0.0065000000 0.0065000000 0.0065000000 0.0065000000 0.0065000000 0.0065000000 0.0065000000 0.0065000000 0.0065000000 0.0065000000 0.0065000000 0.0065000000 0.0065000000 0.0065000000 0.0065000000 0.0065000000 0.0065000000 0.0065000000 0.0065000000 0.0065000000 0.0065000000 0.0065000000 0.0065000000 0.0065000000 0.0065000000 0.0065000000 0.0065000000 0.0065000000 0.0065000000 0.0065000000 0.0065000000 0.0065000000 0.0065000000 0.0065000000 0.0065000000 0.0065000000 0.0065000000 0.0065000000 0.0065000000 0.0065000000 0.0065000000 0.0065000000 0.0065000000 0.0065000000 0.0065000000 0.0065000000 0.0065000000 0.0065000000 0.0065000000 0.0065000000 0.0065000000 0.0065000000 0.0065000000 0.0065000000 0.0065000000 0.0065000000 0.0065000000 0.0065000000 0.0065000000 0.0065000000 0.0065000000 0.0065000000 0.0065000000 0.0065000000 0.0065000000 0.0065000000 0.0065000000 0.0065000000 0.0065000000 0.0065000000 0.0065000000 0.0065000000 0.0065000000 0.0065000000 0.0065000000 0.0065000000 0.0065000000 0.0065000000 0.0065000000 0.0065000000 0.0065000000 0.0065000000 0.0065000000 0.0065000000 0.0065000000 0.0065000000 0.0065000000 0.0065000000 0.0065000000 0.0065000000 0.0065000000 0.0065000000 0.0065000000 0.0065000000 0.0065000000 0.0065000000 0.0065000000 0.0065000000 0.0065000000 0.0065000000 0.0065000000 0.0065000000 0.0065000000 0.0065000000 0.0065000000 0.0065000000 0.0065000000 0.0065000000 0.0065000000 0.0065000000 0.0065000000 0.0065000000 0.0065000000 0.0065000000 0.0065000000 0.0065000000 0.0065000000 0.0065000000 0.0065000000 0.0065000000 0.0065000000 0.0065000000 0.0065000000 0.0065000000 0.0065000000 0.0065000000 0.0065000000 0.0065000000 0.0065000000 0.0065000000 0.0065000000 0.0065000000 0.0065000000 0.0065000000 0.0065000000 0.0065000000 0.0065000000 0.0065000000 0.0065000000 0.0065000000 0.0065000000 0.0065000000 0.0065000000 0.0065000000 0.0065000000 0.0065000000 0.0065000000 0.0065000000 0.0065000000 0.0065000000 0.0065000000 0.0065000000 0.0065000000 0.0065000000 0.0065000000 0.0065000000 0.0065000000 0.0065000000 0.0065000000 0.0065000000 0.0065000000 0.0065000000 0.0065000000 0.0065000000 0.0065000000 0.0065000000 0.0065000000 0.0065000000 0.0065000000 0.0065000000 0.0065000000 0.0065000000 0.0065000000 0.0065000000 0.0065000000 0.0065000000 0.0065000000 0.0065000000 0.0065000000 0.0065000000 0.0065000000 0.0065000000 0.0065000000 0.0065000000 0.0065000000 0.0065000000 0.0065000000 0.0065000000 0.0065000000 0.0065000000 0.0065000000 0.0065000000 0.0065000000 0.0065000000 0.0065000000 0.0065000000 0.0065000000 0.0065000000 0.0065000000 0.0065000000 0.0065000000 0.0065000000 0.0065000000 0.0065000000 0.0065000000 0.0065000000 0.0065000000 0.0065000000 0.0065000000 0.0065000000 0.0065000000 0.0065000000 0.0065000000 0.0065000000 0.0065000000 0.0065000000 0.0065000000 0.0065000000 0.0065000000 0.0065000000 0.0065000000 0.0065000000 0.0065000000 0.0065000000 0.0065000000 0.0065000000 0.0065000000 0.0065000000 0.0065000000 0.0065000000 0.0065000000 0.0065000000 0.0065000000 0.0065000000 0.0065000000 0.0065000000 0.0065000000 0.0065000000 0.0065000000 0.0065000000 0.0065000000 0.0065000000 0.0065000000 0.0065000000 0.0065000000 0.0065000000 0.0065000000 0.0065000000 0.0065000000 0.0065000000 0.0065000000 0.0065000000 0.0065000000 0.0065000000 0.0065000000 0.0065000000 0.0065000000 0.0065000000 0.0065000000 0.0065000000 0.0065000000 0.0065000000 0.0065000000 0.0065000000 0.0065000000 0.0065000000 0.0065000000 0.0065000000 0.0065000000 0.0065000000 0.0065000000 0.0065000000 0.0065000000 0.0065000000 0.0065000000 0.0065000000 0.0065000000 0.0065000000 0.0065000000 0.0065000000 0.0065000000 0.0065000000 0.0065000000 0.0065000000 0.0065000000 0.0065000000 0.0065000000 0.0065000000 0.0065000000 0.0065000000 0.0065000000 0.0065000000 0.0065000000 0.0065000000 0.0065000000 0.0065000000 0.0065000000 0.0065000000 0.0065000000 0.0065000000 0.0065000000 0.0065000000 0.0065000000 0.0065000000 0.0065000000 0.0065000000 0.0065000000 0.0065000000 0.0065000000 0.0065000000 0.0065000000 0.0065000000 0.0065000000 0.0065000000 0.0065000000 0.0065000000 0.0065000000 0.0065000000 0.0065000000 0.0065000000 0.0065000000 0.0065000000 0.0065000000 0.0065000000 0.0065000000 0.0065000000 0.0065000000 0.0065000000 0.0065000000 0.0065000000 0.0065000000 0.0065000000 0.0065000000 0.0065000000 0.0065000000 0.0065000000 0.0065000000 0.0065000000 0.0065000000 0.0065000000 0.0065000000 0.0065000000 0.0065000000 0.0065000000 0.0065000000 0.0065000000 0.0065000000 0.0065000000 0.0065000000 0.0065000000 0.0065000000 0.0065000000 0.0065000000 0.0065000000 0.0065000000 0.0065000000 0.0065000000 0.0065000000 0.0065000000 0.0065000000 0.0065000000 0.0065000000 0.0065000000 0.0065000000 0.0065000000 0.0065000000 0.0065000000 0.0065000000 0.0065000000 0.0065000000 0.0065000000 0.0065000000 0.0065000000 0.0065000000 0.0065000000 0.0065000000 0.0065000000 0.0065000000 0.0065000000 0.0065000000 0.0065000000 0.0065000000 0.0065000000 0.0065000000 0.0065000000 0.0065000000 0.0065000000 0.0065000000 0.0065000000 0.0065000000 0.0065000000 0.0065000000 0.0065000000 0.0065000000 0.0065000000 0.0065000000 0.0065000000 0.0065000000 0.0065000000 0.0065000000 0.0065000000 0.0065000000 0.0065000000 0.0065000000 0.0065000000 0.0065000000 0.0065000000 0.0065000000 0.0065000000 0.0065000000 0.0065000000 0.0065000000 0.0065000000 0.0065000000 0.0065000000 0.0065000000 0.0065000000 0.0065000000 0.0065000000 0.0065000000 0.0065000000 0.0065000000 0.0065000000 0.0065000000 0.0065000000 0.0065000000 0.0065000000 0.0065000000 0.0065000000 0.0065000000 0.0065000000 0.0065000000 0.0065000000 0.0065000000 0.0065000000 0.0065000000 0.0065000000 0.0065000000 0.0065000000 0.0065000000 0.0065000000 0.0065000000 0.0065000000 0.0065000000 0.0065000000 0.0065000000 0.0065000000 0.0065000000 0.0065000000 0.0065000000 0.0065000000 0.0065000000 0.0065000000 0.0065000000 0.0065000000 0.0065000000 0.0065000000 0.0065000000 0.0065000000 0.0065000000 0.0065000000 0.0065000000 0.0065000000 0.0065000000 0.0065000000 0.0065000000 0.0065000000 0.0065000000 0.0065000000 0.0065000000 0.0065000000 0.0065000000 0.0065000000 0.0065000000 0.0065000000 0.0065000000 0.0065000000 0.0065000000 0.0065000000 0.0065000000 0.0065000000 0.0065000000 0.0065000000 0.0065000000 0.0065000000 0.0065000000 0.0065000000 0.0065000000 0.0065000000 0.0065000000 0.0065000000 0.0065000000 0.0065000000 0.0065000000 0.0065000000 0.0065000000 0.0065000000 0.0065000000 0.0065000000 0.0065000000 0.0065000000 0.0065000000 0.0065000000 0.0065000000 0.0065000000 0.0065000000 0.0065000000 0.0065000000 0.0065000000 0.0065000000 0.0065000000 0.0065000000 0.0065000000 0.0065000000 0.0065000000 0.0065000000 0.0065000000 0.0065000000 0.0065000000 0.0065000000 0.0065000000 0.0065000000 0.0065000000 0.0065000000 0.0065000000 0.0065000000 0.0065000000 0.0065000000 0.0065000000 0.0065000000 0.0065000000 0.0065000000 0.0065000000 0.0065000000 0.0065000000 0.0065000000 0.0065000000 0.0065000000 0.0065000000 0.0065000000 0.0065000000 0.0065000000 0.0065000000 0.0065000000 0.0065000000 0.0065000000 0.0065000000 0.0065000000 0.0065000000 0.0065000000 0.0065000000 0.0065000000 0.0065000000 0.0065000000 0.0065000000 0.0065000000 0.0065000000 0.0065000000 0.0065000000 0.0065000000 0.0065000000 0.0065000000 0.0065000000 0.0065000000 0.0065000000 0.0065000000 0.0065000000 0.0065000000 0.0065000000 0.0065000000 0.0065000000 0.0065000000 0.0065000000 0.0065000000 0.0065000000 0.0065000000 0.0065000000 0.0065000000 0.0065000000 0.0065000000 0.0065000000 0.0065000000 0.0065000000 0.0065000000 0.0065000000 0.0065000000 0.0065000000 0.0065000000 0.0065000000 0.0065000000 0.0065000000 0.0065000000 0.0065000000 0.0065000000 0.0065000000 0.0065000000 0.0065000000 0.0065000000 0.0065000000 0.0065000000 0.0065000000 0.0065000000 0.0065000000 0.0065000000 0.0065000000 0.0065000000 0.0065000000 0.0065000000 0.0065000000 0.0065000000 0.0065000000 0.0065000000 0.0065000000 0.0065000000 0.0065000000 0.0065000000 0.0065000000 0.0065000000 0.0065000000 0.0065000000 0.0065000000 0.0065000000 0.0065000000 0.0065000000 0.0065000000 0.0065000000 0.0065000000 0.0065000000 0.0065000000 0.0065000000 0.0065000000 0.0065000000 0.0065000000 0.0065000000 0.0065000000 0.0065000000 0.0065000000 0.0065000000 0.0065000000 0.0065000000 0.0065000000 0.0065000000 0.0065000000 0.0065000000 0.0065000000 0.0065000000 0.0065000000 0.0065000000 0.0065000000 0.0065000000 0.0065000000 0.0065000000 0.0065000000 0.0065000000 0.0065000000 0.0065000000 0.0065000000 0.0065000000 0.0065000000 0.0065000000 0.0065000000 0.0065000000 0.0065000000 0.0065000000 0.0065000000 0.0065000000 0.0065000000 0.0065000000 0.0065000000 0.0065000000 0.0065000000 0.0065000000 0.0065000000 0.0065000000 0.0065000000 0.0065000000 0.0065000000 0.0065000000 0.0065000000 0.0065000000 0.0065000000 0.0065000000 0.0065000000 0.0065000000 0.0065000000 0.0065000000 0.0065000000 0.0065000000 0.0065000000 0.0065000000 0.0065000000 0.0065000000 0.0065000000 0.0065000000 0.0065000000 0.0065000000 0.0065000000 0.0065000000 0.0065000000 0.0065000000 0.0065000000 0.0065000000 0.0065000000 0.0065000000 0.0065000000 0.0065000000 0.0065000000 0.0065000000 0.0065000000 0.0065000000 0.0065000000 0.0065000000 0.0065000000 0.0065000000 0.0065000000 0.0065000000 0.0065000000 0.0065000000 0.0065000000 0.0065000000 0.0065000000 0.0065000000 0.0065000000 0.0065000000 0.0065000000 0.0065000000 0.0065000000 0.0065000000 0.0065000000 0.0065000000 0.0065000000 0.0065000000 0.0065000000 0.0065000000 0.0065000000 0.0065000000 0.0065000000 0.0065000000 0.0065000000 0.0065000000 0.0065000000 0.0065000000 0.0065000000 0.0065000000 0.0065000000 0.0065000000 0.0065000000 0.0065000000 0.0065000000 0.0065000000 0.0065000000 0.0065000000 0.0065000000 0.0065000000 0.0065000000 0.0065000000 0.0065000000 0.0065000000 0.0065000000 0.0065000000 0.0065000000 0.0065000000 0.0065000000 0.0065000000 0.0065000000 0.0065000000 0.0065000000 0.0065000000 0.0065000000 0.0065000000 0.0065000000 0.0065000000 0.0065000000 0.0065000000 0.0065000000 0.0065000000 0.0065000000 0.0065000000 0.0065000000 0.0065000000 0.0065000000 0.0065000000 0.0065000000 0.0065000000 0.0065000000 0.0065000000 0.0065000000 0.0065000000 0.0065000000 0.0065000000 0.0065000000 0.0065000000 0.0065000000 0.0065000000 0.0065000000 0.0065000000 0.0065000000 0.0065000000 0.0065000000 0.0065000000 0.0065000000 0.0065000000 0.0065000000 0.0065000000 0.0065000000 0.0065000000 0.0065000000 0.0065000000 0.0065000000 0.0065000000 0.0065000000 0.0065000000 0.0065000000 0.0065000000 0.0065000000 0.0065000000 0.0065000000 0.0065000000 0.0065000000 0.0065000000 0.0065000000 0.0065000000 0.0065000000 0.0065000000 0.0065000000 0.0065000000 0.0065000000 0.0065000000 0.0065000000 0.0065000000 0.0065000000 0.0065000000 0.0065000000 0.0065000000 0.0065000000 0.0065000000 0.0065000000 0.0065000000 0.0065000000 0.0065000000 0.0065000000 0.0065000000 0.0065000000 0.0065000000 0.0065000000 0.0065000000 0.0065000000 0.0065000000 0.0065000000 0.0065000000 0.0065000000 0.0065000000 0.0065000000 0.0065000000 0.0065000000 0.0065000000 0.0065000000 0.0065000000 0.0065000000 0.0065000000 0.0065000000 0.0065000000 0.0065000000 0.0065000000 0.0065000000 0.0065000000 0.0065000000 0.0065000000 0.0065000000 0.0065000000 0.0065000000 0.0065000000 0.0065000000 0.0065000000 0.0065000000 0.0065000000 0.0065000000 0.0065000000 0.0065000000 0.0065000000 0.0065000000 0.0065000000 0.0065000000 0.0065000000 0.0065000000 0.0065000000 0.0065000000 0.0065000000 0.0065000000 0.0065000000 0.0065000000 0.0065000000 0.0065000000 0.0065000000 0.0065000000 0.0065000000 0.0065000000 0.0065000000 0.0065000000 0.0065000000 0.0065000000 0.0065000000 0.0065000000 0.0065000000 0.0065000000 0.0065000000 0.0065000000 0.0065000000 0.0065000000 0.0065000000 0.0065000000 0.0065000000 0.0065000000 0.0065000000 0.0065000000 0.0065000000 0.0065000000 0.0065000000 0.0065000000 0.0065000000 0.0065000000 0.0065000000 0.0065000000 0.0065000000 0.0065000000 0.0065000000 0.0065000000 0.0065000000 0.0065000000 0.0065000000 0.0065000000 0.0065000000 0.0065000000 0.0065000000 0.0065000000 0.0065000000 0.0065000000 0.0065000000 0.0065000000 0.0065000000 0.0065000000 0.0065000000 0.0065000000 0.0065000000 0.0065000000 0.0065000000 0.0065000000 0.0065000000 0.0065000000 0.0065000000 0.0065000000 0.0065000000 0.0065000000 0.0065000000 0.0065000000 0.0065000000 0.0065000000 0.0065000000 0.0065000000 0.0065000000 0.0065000000 0.0065000000 0.0065000000 0.0065000000 0.0065000000 0.0065000000 0.0065000000 0.0065000000 0.0065000000 0.0065000000 0.0065000000 0.0065000000 0.0065000000 0.0065000000 0.0065000000 0.0065000000 0.0065000000 0.0065000000 0.0065000000 0.0065000000 0.0065000000 0.0065000000 0.0065000000 0.0065000000 0.0065000000 0.0065000000 0.0065000000 0.0065000000 0.0065000000 0.0065000000 0.0065000000 0.0065000000 0.0065000000 0.0065000000 0.0065000000 0.0065000000 0.0065000000 0.0065000000 0.0065000000 0.0065000000 0.0065000000 0.0065000000 0.0065000000 0.0065000000 0.0065000000 0.0065000000 0.0065000000 0.0065000000 0.0065000000 0.0065000000 0.0065000000 0.0065000000 0.0065000000 0.0065000000 0.0065000000 0.0065000000 0.0065000000 0.0065000000 0.0065000000 0.0065000000 0.0065000000 0.0065000000 0.0065000000 0.0065000000 0.0065000000 0.0065000000 0.0065000000 0.0065000000 0.0065000000 0.0065000000 0.0065000000 0.0065000000 0.0065000000 0.0065000000 0.0065000000 0.0065000000 0.0065000000 0.0065000000 0.0065000000 0.0065000000 0.0065000000 0.0065000000 0.0065000000 0.0065000000 0.0065000000 0.0065000000 0.0065000000 0.0065000000 0.0065000000 0.0065000000 0.0065000000 0.0065000000 0.0065000000 0.0065000000 0.0065000000 0.0065000000 0.0065000000 0.0065000000 0.0065000000 0.0065000000 0.0065000000 0.0065000000 0.0065000000 0.0065000000 0.0065000000 0.0065000000 0.0065000000 0.0065000000 0.0065000000 0.0065000000 0.0065000000 0.0065000000 0.0065000000 0.0065000000 0.0065000000 0.0065000000 0.0065000000 0.0065000000 0.0065000000 0.0065000000 0.0065000000 0.0065000000 0.0065000000 0.0065000000 0.0065000000 0.0065000000 0.0065000000 0.0065000000 0.0065000000 0.0065000000 0.0065000000 0.0065000000 0.0065000000 0.0065000000 0.0065000000 0.0065000000 0.0065000000 0.0065000000 0.0065000000 0.0065000000 0.0065000000 0.0065000000 0.0065000000 0.0065000000 0.0065000000 0.0065000000 0.0065000000 0.0065000000 0.0065000000 0.0065000000 0.0065000000 0.0065000000 0.0065000000 0.0065000000 0.0065000000 0.0065000000 0.006500000