<?xml version="1.0"?>
<VTKFile type="UnstructuredGrid" version="0.1" byte_order="LittleEndian">
  <UnstructuredGrid>
    <FieldData>
      <DataArray type="Float32" Name="TIME"  NumberOfTuples="1" format="ascii"> 1.9486578463 </DataArray>
      <DataArray type="Int32"   Name="STEP"  NumberOfTuples="1" format="ascii"> 26130 </DataArray>
    </FieldData>
    <Piece NumberOfPoints="18081" NumberOfCells="18081">
      <Points>
        <DataArray type="Float32" NumberOfComponents="3" format="ascii">
 0.0224979282 0.0784261055 0.0000829774 0.0002879453 0.0452981358 0.0008157888 0.0611541294 0.0732181639 0.0035328355 0.1133732911 0.0172803922 0.0125563609 0.0815891100 0.0601547415 0.0058249833 0.0278136025 -0.0003289268 0.0170717007 0.3496741554 0.0103663214 0.0188481477 0.3418417173 0.0178570762 0.0071874701 0.4237768466 0.0016026319 0.0066952712 0.3681807987 0.0134148803 0.0099036349 0.4151458143 0.0269327610 0.0107751743 0.4248839148 0.0140229145 0.0074349862 0.4054231715 0.0066906598 0.0127988645 0.3375919079 0.0462501354 0.0173769952 0.4080086105 0.0462334465 0.0192255995 0.3977200291 0.0242933130 0.0190896192 0.4950539845 0.0017743029 0.0063365217 0.3247500300 0.0908291324 0.0248294491 0.3937478381 0.0210345744 0.0209090234 0.1732880411 0.0197055069 0.0138420024 0.4364651625 0.0072269008 0.0183648124 0.0396574917 0.0911260932 0.0004025614 0.0134888701 0.0291492939 0.0169742016 0.0661660524 0.0374696912 0.0056671937 0.0776760971 0.0363445291 -0.0002513332 0.0501973168 0.0044595276 0.0082548017 0.3165489049 0.0060696865 0.0048375985 0.3953269060 -0.0014649637 0.0072941080 0.3654114495 0.0084287581 -0.0006755728 0.4069045830 0.0232322122 0.0185041142 0.4187724065 0.0070760175 0.0033996099 0.3590572898 0.0507045557 0.0182452969 0.4388768531 0.0213830565 0.0097896991 0.3639059030 0.0525584411 0.0152767383 0.3946319054 0.0025078425 0.0108817077 0.3508740287 0.0361328615 0.0112138662 0.3954839046 0.0185292555 0.0197530561 0.3973725603 0.0455299390 0.0225519270 0.0568333824 0.0420356917 0.0132496151 0.0414946908 0.0045562788 0.0193531325 0.2788560804 0.0182485818 0.0206520236 0.3411489128 0.0961861346 0.0254897178 0.1053111118 0.0450926915 0.0094651105 0.0010384398 0.0339911154 0.0000053340 0.0486518700 0.0588570950 0.0004369518 0.1659088244 0.0783194247 0.0181845128 0.2675770278 0.0005452202 0.0197127795 0.3463042932 0.0197689981 0.0146000130 0.4221391480 0.0000397430 -0.0003119797 0.5012806908 0.0345019803 0.0029418026 0.4934254172 0.0522414219 0.0007425101 0.3967509489 0.0071113243 -0.0007485453 0.3910332964 0.0483748675 0.0204592563 0.3631257367 0.0333287314 0.0073700976 0.4090284032 0.0626748647 0.0265620359 0.4498194759 0.0553412954 0.0000975989 0.3045880044 0.0174342904 0.0081095456 0.3456836595 0.0138315218 0.0010407737 0.4023127417 0.0273835996 0.0194251407 0.0157765358 0.0484126332 0.0119005187 0.3906989159 0.0658522900 0.0226537596 0.4987496473 0.0386673809 0.0044107067 0.3712865613 0.0469475525 0.0113132947 0.0645658145 0.0487730872 0.0001608238 0.1013972817 0.0302026094 0.0138583004 0.0442624615 0.0548752198 0.0000367051 0.0760907402 0.0423758206 0.0065101447 0.2758691365 0.0093573620 0.0186755012 0.3235422284 0.0037710955 0.0147255828 0.3359392213 0.0005143013 0.0056994477 0.2679395733 0.0209329220 0.0260081927 0.2098724831 0.0014095859 0.0252535910 0.4816344328 0.0069642473 -0.0002559679 0.3551379008 0.0555371352 0.0095328236 0.3392567261 0.0596836244 0.0109094228 0.3912042106 0.0149931076 0.0062577286 0.2767893694 0.0074625767 0.0077073837 0.2700905470 0.0476033280 0.0189642988 0.3597978160 0.0354066156 0.0174001388 0.2208770607 0.0194969973 0.0258595547 0.0131069196 0.0533712736 0.0116209619 0.0094591862 0.0928531239 0.0004174141 0.0371177991 0.0303182398 0.0209835649 0.4597660973 0.0930308707 0.0002566587 0.1547642413 0.0362640294 -0.0001391742 0.1737526056 0.0223976313 0.0025786933 0.0489085651 0.0188570097 0.0001247537 0.2072829060 0.0004049743 0.0144696801 0.2587436510 -0.0000705226 0.0000950323 0.3239043464 0.0059034859 0.0115735226 0.4595229878 0.0256531550 -0.0003262842 0.3177656716 0.0101493618 0.0129419169 0.2852049684 0.0068533295 0.0164701321 0.3042810029 0.0310436964 0.0108037008 0.4527237998 0.0671559853 -0.0000568159 0.3670941531 0.0647864512 0.0027478071 0.3344237673 0.0488725042 0.0187913676 0.3261600400 0.0313454833 0.0101495490 0.2598598062 0.0469782219 0.0214484961 0.3736080574 0.0529626460 0.0195272200 0.3811821417 0.0144277667 0.0212159424 0.3522483387 0.0284148049 0.0194545800 0.3210316529 0.0805089019 0.0251709652 0.3153076034 0.0220115380 0.0256328913 0.3723235920 0.0499743119 0.0203662195 0.1403941252 0.0353705382 0.0087185228 0.0747224262 0.0399590600 0.0008900157 0.0516239392 0.0460609581 -0.0000961063 0.0075278037 0.0127595008 0.0083765040 0.3049472983 0.0200864691 0.0185867602 0.4313310261 0.0088303067 0.0004038423 0.2900819776 0.0324373855 0.0144430811 0.3098294544 0.0355865944 0.0243297447 0.2605891814 0.0603889273 0.0252198796 0.2987047988 0.0181838993 0.0051298272 0.3876529819 0.0249765224 0.0058136936 0.3364826410 0.0488212640 0.0083098788 0.3775022762 0.0507540970 0.0005655427 0.4411366568 0.0738268556 0.0146645473 0.3979154436 0.0493238912 0.0132189373 0.3521195689 0.0462118098 0.0103042725 0.2036694964 0.0222202145 0.0222731064 0.0524803455 0.0816164009 0.0105876294 0.2177440877 0.0110675105 0.0200589391 0.3526656236 0.0109428918 0.0216292773 0.4323190701 0.0475571661 0.0254816879 0.1617691029 0.0317285203 0.0011841599 0.1823346282 0.0239428250 0.0041837518 0.0722325943 0.0299615395 -0.0005408736 0.2574614122 0.0051880063 0.0005834915 0.2760150013 0.0090206258 0.0145867373 0.3123608038 -0.0008159462 0.0014364691 0.2687091578 0.0147562241 -0.0001818162 0.3621848930 0.0137007677 -0.0001144885 0.2484350357 0.0107582516 0.0113675701 0.2768466582 0.0186647686 0.0002422426 0.3229239452 0.0506308170 0.0073485906 0.4009019744 0.0303562801 0.0007171127 0.2956668207 0.0573666123 0.0151275472 0.4095298963 0.0721999048 0.0028121152 0.2554806598 0.0354243103 0.0002493608 0.3652518809 0.0651120706 0.0202287894 0.0082640632 0.0214821282 0.0103229238 0.0800775535 0.0567519581 0.0106939048 0.0696163001 0.0466375248 0.0145437569 0.0004232988 0.0769728996 0.0174235833 0.3644033745 0.0939780306 0.0226053379 0.1259433305 0.0361295500 0.0096665137 0.1118751484 0.0321262702 0.0001667352 0.1379660779 0.0155617358 -0.0000787497 0.2370619229 -0.0001547003 0.0035374666 0.2664541118 0.0026448661 0.0159211972 0.2832279606 0.0013812275 0.0057188500 0.3011799267 0.0165379010 0.0003048781 0.2359749754 0.0517054643 0.0254414922 0.3151172863 0.0185095441 0.0037939051 0.2648591543 0.0113388257 0.0078797828 0.3410626080 0.0421619981 0.0000964100 0.4068448786 0.0797233347 0.0070355120 0.2756339954 0.0543789687 0.0128362402 0.3478495172 0.0503446617 0.0169937486 0.2964872941 0.0475342337 0.0157957804 0.2373970166 0.0438031693 0.0253199113 0.2300002114 0.0636680008 0.0237404598 0.0218190913 0.0495240840 0.0093219868 0.2248648536 0.0382869592 0.0210517896 0.2201308067 0.0460116824 0.0249149177 0.0411720124 0.0461226836 0.0188618474 0.1025719801 0.0363589957 0.0028659563 0.1811589216 0.0502407522 0.0096354411 0.1433307741 0.0183151244 -0.0005020301 0.2343976054 0.0007184058 0.0178008742 0.3105315419 0.0023296617 0.0170264488 0.3054382468 0.0028100702 0.0127895574 0.2893629287 0.0073951159 0.0056593576 0.2525471832 0.0257551335 0.0058849569 0.0936419104 0.0144387599 0.0094924630 0.0137306833 0.0144128990 -0.0003294045 0.3503010554 0.0370530046 0.0010864731 0.3448489442 0.0441979503 0.0042712226 0.3142216410 0.0545759443 -0.0000871699 0.3830743063 0.0620688517 0.0077443932 0.3715016108 0.0629096351 0.0181988332 0.3715093712 0.0706511297 0.0094321957 0.3870611671 0.0944748539 0.0152959507 0.0293373629 0.0141958966 0.0071919029 0.0711777223 0.0355234020 0.0131020023 0.3988934461 0.0281817321 0.0102372618 0.0464444146 0.0501085091 0.0159771119 0.1564397658 0.0402098159 0.0026850690 0.1489137496 0.0564685671 0.0085908879 0.1800635855 0.0549667456 0.0005799918 0.2227758614 -0.0002020665 0.0001201720 0.2938691103 0.0264558909 0.0129773582 0.2756896535 -0.0003251000 0.0003062444 0.2830195966 0.0065766693 0.0063291550 0.2991206814 0.0218323243 -0.0005037041 0.2940532326 0.0170351108 0.0081939401 0.2123217278 0.0246489666 0.0001842578 0.3346830143 0.0318555029 0.0045310021 0.4353713406 0.0515085707 0.0056577853 0.3925775574 0.0493227006 0.0075896545 0.3228989199 0.0141109323 0.0080886518 0.2896907292 0.0758130971 0.0251654882 0.2001088984 0.0235035749 -0.0001223070 0.3283160371 0.0817407876 0.0222011540 0.2440924317 0.0850709631 0.0248360087 0.3636663496 0.0588518057 0.0033450312 0.0692092761 0.0091637922 0.0175124318 0.4371791917 0.0707025945 0.0050211278 0.1612221595 0.0420988731 0.0008624977 0.1210842467 0.0559388667 0.0003769305 0.0917437300 0.0286278843 0.0003377943 0.2524825171 0.0124190799 0.0118449437 0.2494010195 0.0278327070 0.0169237464 0.2936203866 -0.0003671825 0.0210200240 0.2782580520 0.0232549582 -0.0003716159 0.3423977507 0.0329470656 -0.0002937269 0.0428836201 0.0479089768 0.0104022089 0.2335275360 -0.0002697703 0.0001706338 0.4272249852 0.0615690726 -0.0001298366 0.4895928031 0.0859189308 0.0024341780 0.2823539474 0.0639549935 0.0069621968 0.4363579579 0.0661586116 0.0085971887 0.3260507675 0.0615929561 0.0139763179 0.1961077366 0.0631881908 0.0156546935 0.1993103498 0.0673683300 0.0200403737 0.1090686611 0.0176041345 0.0004822444 0.2215503014 0.0688703842 0.0160097808 0.4008865943 0.0918166480 0.0199748646 0.4221347217 0.0821286870 0.0018523244 0.1521854019 0.0413053393 0.0002870506 0.1377909337 0.0658681044 0.0090347520 0.1781841430 0.0200475394 -0.0001163994 0.2176778696 -0.0008461449 0.0193264134 0.0531614228 0.0232657056 0.0062840162 0.2619150198 0.0219121203 0.0038007137 0.2789364548 0.0125956714 0.0015821717 0.2506121883 0.0292412283 0.0119203485 0.3837364087 0.0184119169 0.0012097385 0.2767634225 0.0458587941 0.0130348620 0.4239089429 0.0374655290 0.0141981113 0.3700882956 0.0791524760 0.0
[...]
      <PointData Scalars="smoothLength">
        <DataArray type="Float32" Name="smoothLength" format="ascii">
 0.0065000000 0.0065000000 0.0065000000 0.0065000000 0.0065000000 0.0065000000 0.0065000000 0.0065000000 0.0065000000 0.0065000000 0.0065000000 0.0065000000 0.0065000000 0.0065000000 0.0065000000 0.0065000000 0.0065000000 0.0065000000 0.0065000000 0.0065000000 0.0065000000 0.0065000000 0.0065000000 0.0065000000 0.0065000000 0.0065000000 0.0065000000 0.0065000000 0.0065000000 0.0065000000 0.0065000000 0.0065000000 0.0065000000 0.0065000000 0.0065000000 0.0065000000 0.0065000000 0.0065000000 0.0065000000 0.0065000000 0.0065000000 0.0065000000 0.0065000000 0.0065000000 0.0065000000 0.0065000000 0.0065000000 0.0065000000 0.0065000000 0.0065000000 0.0065000000 0.0065000000 0.0065000000 0.0065000000 0.0065000000 0.0065000000 0.0065000000 0.0065000000 0.0065000000 0.0065000000 0.0065000000 0.0065000000 0.0065000000 0.0065000000 0.0065000000 0.0065000000 0.0065000000 0.0065000000 0.0065000000 0.0065000000 0.0065000000 0.0065000000 0.0065000000 0.0065000000 0.0065000000 0.0065000000 0.0065000000 0.0065000000 0.0065000000 0.0065000000 0.0065000000 0.0065000000 0.0065000000 0.0065000000 0.0065000000 0.0065000000 0.0065000000 0.0065000000 0.0065000000 0.0065000000 0.0065000000 0.0065000000 0.0065000000 0.0065000000 0.0065000000 0.0065000000 0.0065000000 0.0065000000 0.0065000000 0.0065000000 0.0065000000 0.0065000000 0.0065000000 0.0065000000 0.0065000000 0.0065000000 0.0065000000 0.0065000000 0.0065000000 0.0065000000 0.0065000000 0.0065000000 0.0065000000 0.0065000000 0.0065000000 0.0065000000 0.0065000000 0.0065000000 0.0065000000 0.0065000000 0.0065000000 0.0065000000 0.0065000000 0.0065000000 0.0065000000 0.0065000000 0.0065000000 0.0065000000 0.0065000000 0.0065000000 0.0065000000 0.0065000000 0.0065000000 0.0065000000 0.0065000000 0.0065000000 0.0065000000 0.0065000000 0.0065000000 0.0065000000 0.0065000000 0.0065000000 0.0065000000 0.0065000000 0.0065000000 0.0065000000 0.0065000000 0.0065000000 0.0065000000 0.0065000000 0.0065000000 0.0065000000 0.0065000000 0.0065000000 0.0065000000 0.0065000000 0.0065000000 0.0065000000 0.0065000000 0.0065000000 0.0065000000 0.0065000000 0.0065000000 0.0065000000 0.0065000000 0.0065000000 0.0065000000 0.0065000000 0.0065000000 0.0065000000 0.0065000000 0.0065000000 0.0065000000 0.0065000000 0.0065000000 0.0065000000 0.0065000000 0.0065000000 0.0065000000 0.0065000000 0.0065000000 0.0065000000 0.0065000000 0.0065000000 0.0065000000 0.0065000000 0.0065000000 0.0065000000 0.0065000000 0.0065000000 0.0065000000 0.0065000000 0.0065000000 0.0065000000 0.0065000000 0.0065000000 0.0065000000 0.0065000000 0.0065000000 0.0065000000 0.0065000000 0.0065000000 0.0065000000 0.0065000000 0.0065000000 0.0065000000 0.0065000000 0.0065000000 0.0065000000 0.0065000000 0.0065000000 0.0065000000 0.0065000000 0.0065000000 0.0065000000 0.0065000000 0.0065000000 0.0065000000 0.0065000000 0.0065000000 0.0065000000 0.0065000000 0.0065000000 0.0065000000 0.0065000000 0.0065000000 0.0065000000 0.0065000000 0.0065000000 0.0065000000 0.0065000000 0.0065000000 0.0065000000 0.0065000000 0.0065000000 0.0065000000 0.0065000000 0.0065000000 0.0065000000 0.0065000000 0.0065000000 0.0065000000 0.0065000000 0.0065000000 0.0065000000 0.0065000000 0.0065000000 0.0065000000 0.0065000000 0.0065000000 0.0065000000 0.0065000000 0.0065000000 0.0065000000 0.0065000000 0.0065000000 0.0065000000 0.0065000000 0.0065000000 0.0065000000 0.0065000000 0.0065000000 0.0065000000 0.0065000000 0.0065000000 0.0065000000 0.0065000000 0.0065000000 0.0065000000 0.0065000000 0.0065000000 0.0065000000 0.0065000000 0.0065000000 0.0065000000 0.0065000000 0.0065000000 0.0065000000 0.0065000000 0.0065000000 0.0065000000 0.0065000000 0.0065000000 0.0065000000 0.0065000000 0.0065000000 0.0065000000 0.0065000000 0.0065000000 0.0065000000 0.0065000000 0.0065000000 0.0065000000 0.0065000000 0.0065000000 0.0065000000 0.0065000000 0.0065000000 0.0065000000 0.0065000000 0.0065000000 0.0065000000 0.0065000000 0.0065000000 0.0065000000 0.0065000000 0.0065000000 0.0065000000 0.0065000000 0.0065000000 0.0065000000 0.0065000000 0.0065000000 0.0065000000 0.0065000000 0.0065000000 0.0065000000 0.0065000000 0.0065000000 0.0065000000 0.0065000000 0.0065000000 0.0065000000 0.0065000000 0.0065000000 0.0065000000 0.0065000000 0.0065000000 0.0065000000 0.0065000000 0.0065000000 0.0065000000 0.0065000000 0.0065000000 0.0065000000 0.0065000000 0.0065000000 0.0065000000 0.0065000000 0.0065000000 0.0065000000 0.0065000000 0.0065000000 0.0065000000 0.0065000000 0.0065000000 0.0065000000 0.0065000000 0.0065000000 0.0065000000 0.0065000000 0.0065000000 0.0065000000 0.0065000000 0.0065000000 0.0065000000 0.0065000000 0.0065000000 0.0065000000 0.0065000000 0.0065000000 0.0065000000 0.0065000000 0.0065000000 0.0065000000 0.0065000000 0.0065000000 0.0065000000 0.0065000000 0.0065000000 0.0065000000 0.0065000000 0.0065000000 0.0065000000 0.0065000000 0.0065000000 0.0065000000 0.0065000000 0.0065000000 0.0065000000 0.0065000000 0.0065000000 0.0065000000 0.0065000000 0.0065000000 0.0065000000 0.0065000000 0.0065000000 0.0065000000 0.0065000000 0.0065000000 0.0065000000 0.0065000000 0.0065000000 0.0065000000 0.0065000000 0.0065000000 0.0065000000 0.0065000000 0.0065000000 0.0065000000 0.0065000000 0.0065000000 0.0065000000 0.0065000000 0.0065000000 0.0065000000 0.0065000000 0.0065000000 0.0065000000 0.0065000000 0.0065000000 0.0065000000 0.0065000000 0.0065000000 0.0065000000 0.0065000000 0.0065000000 0.0065000000 0.0065000000 0.0065000000 0.0065000000 0.0065000000 0.0065000000 0.0065000000 0.0065000000 0.0065000000 0.0065000000 0.0065000000 0.0065000000 0.0065000000 0.0065000000 0.0065000000 0.0065000000 0.0065000000 0.0065000000 0.0065000000 0.0065000000 0.0065000000 0.0065000000 0.0065000000 0.0065000000 0.0065000000 0.0065000000 0.0065000000 0.0065000000 0.0065000000 0.0065000000 0.0065000000 0.0065000000 0.0065000000 0.0065000000 0.0065000000 0.0065000000 0.0065000000 0.0065000000 0.0065000000 0.0065000000 0.0065000000 0.0065000000 0.0065000000 0.0065000000 0.0065000000 0.0065000000 0.0065000000 0.0065000000 0.0065000000 0.0065000000 0.0065000000 0.0065000000 0.0065000000 0.0065000000 0.0065000000 0.0065000000 0.0065000000 0.0065000000 0.0065000000 0.0065000000 0.0065000000 0.0065000000 0.0065000000 0.0065000000 0.0065000000 0.0065000000 0.0065000000 0.0065000000 0.0065000000 0.0065000000 0.0065000000 0.0065000000 0.0065000000 0.0065000000 0.0065000000 0.0065000000 0.0065000000 0.0065000000 0.0065000000 0.0065000000 0.0065000000 0.0065000000 0.0065000000 0.0065000000 0.0065000000 0.0065000000 0.0065000000 0.0065000000 0.0065000000 0.0065000000 0.0065000000 0.0065000000 0.0065000000 0.0065000000 0.0065000000 0.0065000000 0.0065000000 0.0065000000 0.0065000000 0.0065000000 0.0065000000 0.0065000000 0.0065000000 0.0065000000 0.0065000000 0.0065000000 0.0065000000 0.0065000000 0.0065000000 0.0065000000 0.0065000000 0.0065000000 0.0065000000 0.0065000000 0.0065000000 0.0065000000 0.0065000000 0.0065000000 0.0065000000 0.0065000000 0.0065000000 0.0065000000 0.0065000000 0.0065000000 0.0065000000 0.0065000000 0.0065000000 0.0065000000 0.0065000000 0.0065000000 0.0065000000 0.0065000000 0.0065000000 0.0065000000 0.0065000000 0.0065000000 0.0065000000 0.0065000000 0.0065000000 0.0065000000 0.0065000000 0.0065000000 0.0065000000 0.0065000000 0.0065000000 0.0065000000 0.0065000000 0.0065000000 0.0065000000 0.0065000000 0.0065000000 0.0065000000 0.0065000000 0.0065000000 0.0065000000 0.0065000000 0.0065000000 0.0065000000 0.0065000000 0.0065000000 0.0065000000 0.0065000000 0.0065000000 0.0065000000 0.0065000000 0.0065000000 0.0065000000 0.0065000000 0.0065000000 0.0065000000 0.0065000000 0.0065000000 0.0065000000 0.0065000000 0.0065000000 0.0065000000 0.0065000000 0.0065000000 0.0065000000 0.0065000000 0.0065000000 0.0065000000 0.0065000000 0.0065000000 0.0065000000 0.0065000000 0.0065000000 0.0065000000 0.0065000000 0.0065000000 0.0065000000 0.0065000000 0.0065000000 0.0065000000 0.0065000000 0.0065000000 0.0065000000 0.0065000000 0.0065000000 0.0065000000 0.0065000000 0.0065000000 0.0065000000 0.0065000000 0.0065000000 0.0065000000 0.0065000000 0.0065000000 0.0065000000 0.0065000000 0.0065000000 0.0065000000 0.0065000000 0.0065000000 0.0065000000 0.0065000000 0.0065000000 0.0065000000 0.0065000000 0.0065000000 0.0065000000 0.0065000000 0.0065000000 0.0065000000 0.0065000000 0.0065000000 0.0065000000 0.0065000000 0.0065000000 0.0065000000 0.0065000000 0.0065000000 0.0065000000 0.0065000000 0.0065000000 0.0065000000 0.0065000000 0.0065000000 0.0065000000 0.0065000000 0.0065000000 0.0065000000 0.0065000000 0.0065000000 0.0065000000 0.0065000000 0.0065000000 0.0065000000 0.0065000000 0.0065000000 0.0065000000 0.0065000000 0.0065000000 0.0065000000 0.0065000000 0.0065000000 0.0065000000 0.0065000000 0.0065000000 0.0065000000 0.0065000000 0.0065000000 0.0065000000 0.0065000000 0.0065000000 0.0065000000 0.0065000000 0.0065000000 0.0065000000 0.0065000000 0.0065000000 0.0065000000 0.0065000000 0.0065000000 0.0065000000 0.0065000000 0.0065000000 0.0065000000 0.0065000000 0.0065000000 0.0065000000 0.0065000000 0.0065000000 0.0065000000 0.0065000000 0.0065000000 0.0065000000 0.0065000000 0.0065000000 0.0065000000 0.0065000000 0.0065000000 0.0065000000 0.0065000000 0.0065000000 0.0065000000 0.0065000000 0.0065000000 0.0065000000 0.0065000000 0.0065000000 0.0065000000 0.0065000000 0.0065000000 0.0065000000 0.0065000000 0.0065000000 0.0065000000 0.0065000000 0.0065000000 0.0065000000 0.0065000000 0.0065000000 0.0065000000 0.0065000000 0.0065000000 0.0065000000 0.0065000000 0.0065000000 0.0065000000 0.0065000000 0.0065000000 0.0065000000 0.0065000000 0.0065000000 0.0065000000 0.0065000000 0.0065000000 0.0065000000 0.0065000000 0.0065000000 0.0065000000 0.0065000000 0.0065000000 0.0065000000 0.0065000000 0.0065000000 0.0065000000 0.0065000000 0.0065000000 0.0065000000 0.0065000000 0.0065000000 0.0065000000 0.0065000000 0.0065000000 0.0065000000 0.0065000000 0.0065000000 0.0065000000 0.0065000000 0.0065000000 0.0065000000 0.0065000000 0.0065000000 0.0065000000 0.0065000000 0.0065000000 0.0065000000 0.0065000000 0.0065000000 0.0065000000 0.0065000000 0.0065000000 0.0065000000 0.0065000000 0.0065000000 0.0065000000 0.0065000000 0.0065000000 0.0065000000 0.0065000000 0.0065000000 0.0065000000 0.0065000000 0.0065000000 0.0065000000 0.0065000000 0.0065000000 0.0065000000 0.0065000000 0.0065000000 0.0065000000 0.0065000000 0.0065000000 0.0065000000 0.0065000000 0.0065000000 0.0065000000 0.0065000000 0.0065000000 0.0065000000 0.0065000000 0.0065000000 0.0065000000 0.0065000000 0.0065000000 0.0065000000 0.0065000000 0.0065000000 0.0065000000 0.0065000000 0.0065000000 0.0065000000 0.0065000000 0.0065000000 0.0065000000 0.0065000000 0.0065000000 0.0065000000 0.0065000000 0.0065000000 0.0065000000 0.0065000000 0.0065000000 0.0065000000 0.0065000000 0.0065000000 0.0065000000 0.0065000000 0.0065000000 0.0065000000 0.0065000000 0.0065000000 0.0065000000 0.0065000000 0.0065000000 0.0065000000 0.0065000000 0.0065000000 0.0065000000 0.0065000000 0.0065000000 0.0065000000 0.0065000000 0.0065000000 0.0065000000 0.0065000000 0.0065000000 0.0065000000 0.0065000000 0.0065000000 0.0065000000 0.0065000000 0.0065000000 0.0065000000 0.0065000000 0.0065000000 0.0065000000 0.0065000000 0.0065000000 0.0065000000 0.0065000000 0.0065000000 0.0065000000 0.0065000000 0.0065000000 0.0065000000 0.0065000000 0.0065000000 0.0065000000 0.0065000000 0.0065000000 0.0065000000 0.0065000000 0.0065000000 0.0065000000 0.0065000000 0.0065000000 0.0065000000 0.0065000000 0.0065000000 0.0065000000 0.0065000000 0.0065000000 0.0065000000 0.0065000000 0.0065000000 0.0065000000 0.0065000000 0.0065000000 0.0065000000 0.0065000000 0.0065000000 0.0065000000 0.0065000000 0.0065000000 0.0065000000 0.0065000000 0.0065000000 0.0065000000 0.0065000000 0.0065000000 0.0065000000 0.0065000000 0.0065000000 0.0065000000 0.0065000000 0.0065000000 0.0065000000 0.0065000000 0.0065000000 0.0065000000 0.0065000000 0.0065000000 0.0065000000 0.0065000000 0.0065000000 0.0065000000 0.0065000000 0.0065000000 0.0065000000 0.0065000000 0.0065000000 0.0065000000 0.0065000000 0.0065000000 0.0065000000 0.0065000000 0.0065000000 0.0065000000 0.0065000000 0.0065000000 0.0065000000 0.0065000000 0.0065000000 0.0065000000 0.0065000000 0.0065000000 0.0065000000 0.0065000000 0.0065000000 0.0065000000 0.0065000000 0.0065000000 0.0065000000 0.0065000000 0.0065000000 0.0065000000 0.0065000000 0.0065000000 0.0065000000 0.0065000000 0.0065000000 0.0065000000 0.0065000000 0.0065000000 0.0065000000 0.0065000000 0.0065000000 0.0065000000 0.0065000000 0.0065000000 0.0065000000 0.0065000000 0.0065000000 0.0065000000 0.0065000000 0.0065000000 0.0065000000 0.0065000000 0.0065000000 0.0065000000 0.0065000000 0.0065000000 0.0065000000 0.0065000000 0.0065000000 0.0065000000 0.0065000000 0.0065000000 0.0065000000 0.0065000000 0.0065000000 0.0065000000 0.0065000000 0.0065000000 0.0065000000 0.0065000000 0.0065000000 0.0065000000 0.0065000000 0.0065000000 0.0065000000 0.0065000000 0.0065000000 0.0065000000 0.0065000000 0.0065000000 0.0065000000 0.0065000000 0.0065000000 0.0065000000 0.0065000000 0.0065000000 0.0065000000 0.0065000000 0.0065000000 0.0065000000 0.0065000000 0.0065000000 0.0065000000 0.0065000000 0.0065000000 0.0065000000 0.0065000000 0.0065000000 0.0065000000 0.0065000000 0.0065000000 0.0065000000 0.0065000000 0.0065000000 0.0065000000 0.0065000000 0.0065000000 0.0065000000 0.0065000000 0.0065000000 0.0065000000 0.0065000000 0.0065000000 0.0065000000 0.0065000000 0.0065000000 0.0065000000 0.0065000000 0.0065000000 0.0065000000 0.0065000000 0.0065000000 0.0065000000 0.0065000000 0.0065000000 0.0065000000 0.0065000000 0.0065000000 0.0065000000 0.0065000000 0.0065000000 0.0065000000 0.0065000000 0.0065000000 0.0065000000 0.0065000000 0.0065000000 0.0065000000 0.0065000000 0.0065000000 0.0065000000 0.0065000000 0.0065000000 0.0065000000 0.0065000000 0.0065000000 0.0065000000 0.0065000000 0.0065000000 0.0065000000 0.0065000000 0.0065000000 0.0065000000 0.0065000000 0.0065000000 0.0065000000 0.0065000000 0.0065000000 0.0065000000 0.0065000000 0.0065000000 0.0065000000 0.0065000000 0.0065000000 0.0065000000 0.0065000000 0.0065000000 0.0065000000 0.0065000000 0.0065000000 0.0065000000 0.0065000000 0.0065000000 0.0065000000 0.0065000000 0.0065000000 0.0065000000 0.0065000000 0.0065000000 0.0065000000 0.0065000000 0.0065000000 0.0065000000 0.0065000000 0.0065000000 0.0065000000 0.0065000000 0.0065000000 0.0065000000 0.0065000000 0.0065000000 0.0065000000 0.0065000000 0.0065000000 0.0065000000 0.0065000000 0.0065000000 0.0065000000 0.0065000000 0.0065000000 0.0065000000 0.0065000000 0.0065000000 0.0065000000 0.0065000000 0.0065000000 0.0065000000 0.0065000000 0.0065000000 0.0065000000 0.0065000000 0.0065000000 0.0065000000 0.0065000000 0.0065000000 0.0065000000 0.0065000000 0.0065000000 0.0065000000 0.0065000000 0.0065000000 0.0065000000 0.0065000000 0.0065000000 0.0065000000 0.0065000000 0.0065000000 0.0065000000 0.0065000000 0.0065000000 0.0065000000 0.0065000000 0.0065000000 0.0065000000 0.0065000000 0.0065000000 0.0065000000 0.0065000000 0.0065000000 0.0065000000 0.0065000000 0.0065000000 0.0065000000 0.0065000000 0.0065000000 0.0065000000 0.0065000000 0.0065000000 0.0065000000 0.0065000000 0.0065000000 0.0065000000 0.0065000000 0.0065000000 0.0065000000 0.0065000000 0.0065000000 0.0065000000 0.0065000000 0.0065000000 0.0065000000 0.0065000000 0.0065000000 0.0065000000 0.0065000000 0.0065000000 0.0065000000 0.0065000000 0.0065000000 0.0065000000 0.0065000000 0.0065000000 0.0065000000 0.0065000000 0.0065000000 0.0065000000 0.0065000000 0.0065000000 0.0065000000 0.0065000000 0.0065000000 0.0065000000 0.0065000000 0.0065000000 0.0065000000 0.0065000000 0.0065000000 0.0065000000 0.0065000000 0.0065000000 0.0065000000 0.0065000000 0.0065000000 0.0065000000 0.0065000000 0.0065000000 0.0065000000 0.0065000000 0.0065000000 0.0065000000 0.0065000000 0.0065000000 0.0065000000 0.0065000000 0.0065000000 0.0065000000 0.0065000000 0.0065000000 0.0065000000 0.0065000000 0.0065000000 0.0065000000 0.0065000000 0.0065000000 0.0065000000 0.0065000000 0.0065000000 0.0065000000 0.0065000000 0.0065000000 0.0065000000 0.0065000000 0.0065000000 0.0065000000 0.0065000000 0.0065000000 0.0065000000 0.0065000000 0.0065000000 0.0065000000 0.0065000000 0.0065000000 0.0065000000 0.0065000000 0.0065000000 0.0065000000 0.0065000000 0.0065000000 0.0065000000 0.0065000000 0.0065000000 0.0065000000 0.0065000000 0.0065000000 0.0065000000 0.0065000000 0.0065000000 0.0065000000 0.0065000000 0.0065000000 0.0065000000 0.0065000000 0.0065000000 0.0065000000 0.0065000000 0.0065000000 0.0065000000 0.0065000000 0.0065000000 0.0065000000 0.0065000000 0.0065000000 0.0065000000 0.0065000000 0.0065000000 0.0065000000 0.0065000000 0.0065000000 0.0065000000 0.0065000000 0.0065000000 0.0065000000 0.0065000000 0.0065000000 0.0065000000 0.0065000000 0.0065000000 0.0065000000 0.0065000000 0.0065000000 0.0065000000 0.0065000000 0.0065000000 0.0065000000 0.0065000000 0.0065000000 0.0065000000 0.0065000000 0.0065000000 0.0065000000 0.0065000000 0.0065000000 0.0065000000 0.0065000000 0.0065000000 0.0065000000 0.0065000000 0.0065000000 0.0065000000 0.0065000000 0.0065000000 0.0065000000 0.0065000000 0.0065000000 0.0065000000 0.0065000000 0.0065000000 0.0065000000 0.0065000000 0.0065000000 0.0065000000 0.0065000000 0.0065000000 0.0065000000 0.0065000000 0.0065000000 0.0065000000 0.0065000000 0.0065000000 0.0065000000 0.0065000000 0.0065000000 0.0065000000 0.0065000000 0.0065000000 0.0065000000 0.0065000000 0.0065000000 0.0065000000 0.0065000000 0.0065000000 0.0065000000 0.0065000000 0.0065000000 0.0065000000 0.0065000000 0.0065000000 0.0065000000 0.0065000000 0.0065000000 0.0065000000 0.0065000000 0.0065000000 0.0065000000 0.0065000000 0.0065000000 0.0065000000 0.0065000000 0.0065000000 0.0065000000 0.0065000000 0.0065000000 0.0065000000 0.0065000000 0.0065000000 0.0065000000 0.0065000000 0.0065000000 0.0065000000 0.0065000000 0.0065000000 0.0065000000 0.0065000000 0.0065000000 0.0065000000 0.0065000000 0.0065000000 0.0065000000 0.0065000000 0.0065000000 0.0065000000 0.0065000000 0.0065000000 0.0065000000 0.0065000000 0.0065000000 0.0065000000 0.0065000000 0.0065000000 0.0065000000 0.0065000000 0.0065000000 0.0065000000 0.0065000000 0.0065000000 0.0065000000 0.0065000000 0.0065000000 0.0065000000 0.0065000000 0.0065000000 0.0065000000 0.0065000000 0.0065000000 0.0065000000 0.0065000000 0.0065000000 0.0065000000 0.0065000000 0.0065000000 0.0065000000 0.0065000000 0.0065000000 0.0065000000 0.0065000000 0.0065000000 0.0065000000 0.0065000000 0.0065000000 0.0065000000 0.0065000000 0.0065000000 0.0065000000 0.0065000000 0.0065000000 0.0065000000 0.0065000000 0.0065000000 0.0065000000 0.0065000000 0.0065000000 0.0065000000 0.0065000000 0.0065000000 0.0065000000 0.0065000000 0.0065000000 0.0065000000 0.0065000000 0.0065000000 0.0065000000 0.0065000000 0.0065000000 0.0065000000 0.0065000000 0.0065000000 0.0065000000 0.0065000000 0.0065000000 0.0065000000 0.0065000000 0.0065000000 0.0065000000 0.0065000000 0.0065000000 0.0065000000 0.0065000000 0.0065000000 0.0065000000 0.0065000000 0.0065000000 0.0065000000 0.0065000000 0.0065000000 0.0065000000 0.0065000000 0.0065000000 0.0065000000 0.0065000000 0.0065000000 0.0065000000 0.0065000000 0.0065000000 0.0065000000 0.0065000000 0.0065000000 0.0065000000 0.0065000000 0.0065000000 0.0065000000 0.0065000000 0.0065000000 0.0065000000 0.0065000000 0.0065000000 0.0065000000 0.0065000000 0.0065000000 0.0065000000 0.0065000000 0.0065000000 0.0065000000 0.0065000000 0.0065000000 0.0065000000 0.0065000000 0.0065000000 0.0065000000 0.0065000000 0.0065000000 0.0065000000 0.0065000000 0.0065000000 0.0065000000 0.0065000000 0.0065000000 0.0065000000 0.0065000000 0.0065000000 0.0065000000 0.0065000000 0.0065000000 0.006500000