<?xml version="1.0"?>
<VTKFile type="UnstructuredGrid" version="0.1" byte_order="LittleEndian">
  <UnstructuredGrid>
    <FieldData>
      <DataArray type="Float32" Name="TIME"  NumberOfTuples="1" format="ascii"> 0.1998623432 </DataArray>
      <DataArray type="Int32"   Name="STEP"  NumberOfTuples="1" format="ascii"> 2680 </DataArray>
    </FieldData>
    <Piece NumberOfPoints="18081" NumberOfCells="18081">
      <Points>
        <DataArray type="Float32" NumberOfComponents="3" format="ascii">
 0.0116577864 0.0054913317 -0.0003423081 0.0191599946 0.0068954804 -0.0005417435 0.0240751381 0.0067812056 -0.0001867526 0.0321158489 0.0041815000 -0.0011351914 0.0382056748 0.0064462233 -0.0001546809 0.0464764865 0.0076657028 -0.0001509125 0.0545259295 0.0078661266 -0.0009515528 0.0640507629 0.0082296195 -0.0009013107 0.0731938685 0.0086748619 -0.0008042180 0.0831911899 0.0085357063 -0.0009226917 0.0940537641 0.0087994582 -0.0008901337 0.1071797196 0.0078783725 -0.0006436304 0.1205278585 0.0066469231 -0.0006548343 0.1351203270 0.0072294429 -0.0003936291 0.1557734416 0.0077173221 0.0002810937 0.1755712224 0.0069132108 -0.0006159981 0.1985727369 0.0069078129 -0.0006788428 0.2234326199 0.0058604520 -0.0005169437 0.2557791084 0.0048875542 -0.0001243492 0.2850294542 -0.0015679258 -0.0001502974 0.3111466613 0.0010384687 0.0003448639 0.0083480502 0.0113653504 -0.0008869694 0.0144971128 0.0088670861 0.0000527212 0.0220355374 0.0118363133 -0.0000902802 0.0329991103 0.0103016277 -0.0003396506 0.0450455078 0.0123492895 0.0000711203 0.0551208280 0.0132212328 0.0000814914 0.0661464764 0.0128677220 0.0002042568 0.0769643165 0.0125437111 -0.0005370602 0.0883835267 0.0122852493 -0.0003178680 0.1004698218 0.0116012717 -0.0003539240 0.1123833403 0.0122833620 -0.0008516261 0.1276999503 0.0121244992 -0.0010836283 0.1464706518 0.0123002258 0.0000456719 0.1660283311 0.0116342128 0.0008061765 0.1847330190 0.0125159067 -0.0005654903 0.2001973763 0.0115439802 -0.0004752259 0.2294914546 0.0082528906 -0.0005135263 0.2580919172 0.0095543061 -0.0009021023 0.2770390037 0.0060916940 -0.0002185913 0.3004922011 0.0013583408 -0.0005427361 0.3411683837 0.0046284391 -0.0003416146 0.0121699617 0.0143754240 0.0001413423 0.0173499158 0.0138845842 -0.0005545225 0.0219137206 0.0162415338 0.0005883719 0.0275385430 0.0155058258 -0.0005259988 0.0369471104 0.0142305782 -0.0005600570 0.0492449062 0.0149494388 -0.0008207126 0.0599579745 0.0149133997 -0.0009739995 0.0708317685 0.0147213699 -0.0008606388 0.0833451032 0.0139760596 -0.0002306659 0.0947456235 0.0140819009 -0.0007472494 0.1058397010 0.0149879158 -0.0009409534 0.1190742315 0.0151629390 -0.0005837479 0.1349080468 0.0152494832 -0.0008385970 0.1507947219 0.0155352208 -0.0007481022 0.1672885631 0.0154293667 -0.0003895701 0.1929883069 0.0149162872 0.0016385159 0.2324890369 0.0164709929 -0.0008981703 0.2577165239 0.0139838180 -0.0006756437 0.2844106006 0.0101085403 -0.0002756237 0.3092018340 0.0074813685 -0.0013674790 0.3331445297 0.0066839647 -0.0007026348 0.0103671500 0.0188770678 -0.0003810425 0.0171681013 0.0193498489 -0.0002903484 0.0248878040 0.0205386776 -0.0004727187 0.0326595647 0.0188892440 -0.0011651193 0.0413775278 0.0183797099 -0.0011648958 0.0526770369 0.0192955482 -0.0007894727 0.0635849645 0.0191489506 -0.0008482790 0.0745531022 0.0189775180 -0.0006956439 0.0864997522 0.0186257646 -0.0005791793 0.0991239985 0.0181694730 -0.0005752763 0.1125167502 0.0181053865 -0.0008350290 0.1271363936 0.0178448562 -0.0010923848 0.1438337548 0.0185101390 -0.0010782333 0.1604062539 0.0184351318 -0.0009772251 0.1800949773 0.0174235363 -0.0002609478 0.2015355216 0.0199544964 0.0002262465 0.2237579271 0.0186253835 -0.0001955007 0.2517880248 0.0178333079 -0.0007699554 0.2731831358 0.0153917982 -0.0008970723 0.3116474789 0.0137584199 -0.0011885413 0.3352355726 0.0121697188 -0.0000023449 0.0095093285 0.0243072996 -0.0006622088 0.0195678058 0.0244911123 -0.0006665587 0.0268808669 0.0244809046 -0.0003098656 0.0324574908 0.0242090948 -0.0001462545 0.0425551032 0.0244844060 -0.0007963856 0.0505710166 0.0244426362 -0.0006671160 0.0602219458 0.0237497430 -0.0007171270 0.0713507126 0.0234785851 -0.0008787944 0.0827526585 0.0232099827 -0.0010101188 0.0950260349 0.0229678556 -0.0007923467 0.1079949977 0.0229957551 -0.0006093531 0.1233025715 0.0231574764 -0.0006036362 0.1394114587 0.0233503846 -0.0007104195 0.1547355573 0.0247232542 -0.0006911986 0.1758808871 0.0232697279 -0.0011213756 0.1941651362 0.0243424190 -0.0010740927 0.2291201987 0.0233719711 -0.0011346377 0.2592323008 0.0220633642 -0.0010363087 0.2836345249 0.0207778478 -0.0002133316 0.3120866597 0.0206891515 -0.0014929146 0.3349886720 0.0173867120 -0.0001483782 0.0112729722 0.0293914353 -0.0004921926 0.0182470351 0.0307009923 -0.0005178236 0.0241105755 0.0285939144 -0.0001809421 0.0299828845 0.0296124179 -0.0006264978 0.0381458997 0.0296968394 -0.0006896453 0.0487767712 0.0294235076 -0.0008389303 0.0596565000 0.0290566445 -0.0008331723 0.0702907647 0.0288376098 -0.0008244993 0.0810308205 0.0288694677 -0.0011053370 0.0917379647 0.0288331372 -0.0013192967 0.1050405637 0.0285341561 -0.0007510462 0.1204092790 0.0285307701 -0.0007365400 0.1351289191 0.0291034555 -0.0008002327 0.1529259152 0.0292830379 -0.0006141206 0.1748907105 0.0292746243 -0.0008192488 0.2006665947 0.0279589519 0.0000080695 0.2331880479 0.0287475250 -0.0009141999 0.2547436637 0.0275141280 -0.0011283016 0.2788953394 0.0258823684 -0.0013405218 0.3124002803 0.0251753857 -0.0002147121 0.3355763815 0.0226856249 -0.0003794143 0.0109159110 0.0346608392 -0.0010712131 0.0185469259 0.0362116932 -0.0006055774 0.0268416713 0.0337553710 -0.0003200784 0.0340804003 0.0343552088 -0.0009567159 0.0422955190 0.0344093979 -0.0013025782 0.0524379171 0.0343802610 -0.0010151641 0.0630240773 0.0341253970 -0.0009008869 0.0738431924 0.0338829425 -0.0011616802 0.0858387863 0.0339281083 -0.0010776086 0.0974697125 0.0338668064 -0.0011257588 0.1088603529 0.0336956791 -0.0010494881 0.1240877630 0.0338751809 -0.0009948718 0.1396166853 0.0340570539 -0.0008326293 0.1546184727 0.0340656845 -0.0011948368 0.1776206736 0.0338029278 -0.0010896971 0.2002043078 0.0331090311 -0.0001075936 0.2250073216 0.0328922477 0.0006000688 0.2571416791 0.0324178280 -0.0010644900 0.2817077615 0.0306970511 -0.0010182460 0.3119726021 0.0305068986 -0.0010860306 0.3342212509 0.0285125152 -0.0001761933 0.0105427629 0.0400046027 -0.0006908317 0.0185187728 0.0404661597 -0.0002834719 0.0258182717 0.0388438304 -0.0004616648 0.0316684165 0.0391099211 -0.0004301649 0.0377602067 0.0393319318 -0.0008761415 0.0487720760 0.0394300600 -0.0009637458 0.0597184814 0.0391698985 -0.0009978368 0.0703823319 0.0389916048 -0.0010745722 0.0815717839 0.0386832439 -0.0012319073 0.0922172428 0.0387094314 -0.0014984789 0.1053061458 0.0388139293 -0.0011061348 0.1209188760 0.0388777582 -0.0007107544 0.1353541001 0.0390564019 -0.0006441388 0.1534684064 0.0391835966 -0.0009734090 0.1754896425 0.0389819150 -0.0009589416 0.1998148497 0.0386777264 -0.0003633567 0.2304452988 0.0363803026 -0.0011005047 0.2558407870 0.0375054448 -0.0009967421 0.2803232093 0.0362477704 -0.0010720655 0.3120951908 0.0352732448 -0.0002337247 0.3349520805 0.0336740709 -0.0004376648 0.0120129180 0.0451552657 -0.0008155033 0.0186812028 0.0453066583 -0.0004845617 0.0266276517 0.0440315808 -0.0005047881 0.0336606838 0.0443090506 -0.0007694078 0.0412222977 0.0440894523 -0.0011338433 0.0511966711 0.0442624795 -0.0007698279 0.0621468567 0.0441234199 -0.0008019788 0.0729116596 0.0438971718 -0.0010204155 0.0847410356 0.0437575917 -0.0010391330 0.0955710029 0.0436937104 -0.0011518552 0.1073463569 0.0438257160 -0.0010955473 0.1226613443 0.0439989714 -0.0011254459 0.1377620267 0.0438203158 -0.0009663431 0.1538001746 0.0440856058 -0.0011908204 0.1758213055 0.0439236411 -0.0008918732 0.2004627550 0.0434348397 0.0003120470 0.2271634168 0.0416695750 0.0000256890 0.2560102063 0.0422106935 -0.0008562278 0.2800095318 0.0410125538 -0.0008953950 0.3117824378 0.0402987138 -0.0007344111 0.3342018797 0.0391547146 -0.0001812439 0.0114746857 0.0501895830 -0.0006120657 0.0186321352 0.0497851854 -0.0004273252 0.0267112389 0.0491352190 -0.0004364541 0.0330723309 0.0492495019 -0.0005827170 0.0391846515 0.0492810500 -0.0007334043 0.0494994359 0.0492448892 -0.0007301624 0.0601555680 0.0491443418 -0.0007694791 0.0706351001 0.0489958328 -0.0008515874 0.0819434748 0.0487393266 -0.0008237078 0.0927985235 0.0487744307 -0.0011073999 0.1057246329 0.0488311142 -0.0010460127 0.1210906997 0.0489303770 -0.0007857449 0.1359318456 0.0488657566 -0.0006619952 0.1531576692 0.0488740462 -0.0008892909 0.1761419526 0.0487424627 -0.0008401442 0.2001027674 0.0481927440 -0.0000373621 0.2273771567 0.0472791393 -0.0005439399 0.2559675918 0.0469368585 -0.0009161611 0.2802454686 0.0459063919 -0.0008708949 0.3117431091 0.0452271062 -0.0002610392 0.3345826990 0.0443755421 -0.0003519268 0.0120680847 0.0549625022 -0.0005420908 0.0186958586 0.0544442729 -0.0004878727 0.0270154077 0.0540224476 -0.0003648887 0.0335006518 0.0542175078 -0.0006124927 0.0402943879 0.0540903883 -0.0008055065 0.0500080010 0.0540780335 -0.0006184896 0.0609217430 0.0539605996 -0.0006453601 0.0715836739 0.0537968152 -0.0007225020 0.0834107698 0.0536504057 -0.0006931774 0.0944379126 0.0536390932 -0.0008818703 0.1067576423 0.0537181277 -0.0010179283 0.1221071431 0.0537479231 -0.0009617165 0.1370208554 0.0535744364 -0.0007508598 0.1536416438 0.0535604772 -0.0011342927 0.1757598800 0.0535528184 -0.0008110343 0.1999990599 0.0528842829 0.0000382637 0.2273315106 0.0519063114 0.0000699504 0.2558869362 0.0515975560 -0.0008618860 0.2798678929 0.0507391624 -0.0009194468 0.3116664729 0.0502295904 -0.0005566482 0.3343757852 0.0496301250 -0.0002474649 0.0119339208 0.0596508175 -0.0004735499 0.0186635294 0.0591194086 -0.0004710352 0.0268229999 0.0589367977 -0.0003794827 0.0332508345 0.0590327476 -0.0005512389 0.0398370726 0.0589547871 -0.0006847125 0.0498284178 0.0588461872 -0.0006313093 0.0603983547 0.0587694408 -0.00064592
[...]
      <PointData Scalars="smoothLength">
        <DataArray type="Float32" Name="smoothLength" format="ascii">
 0.0065000000 0.0065000000 0.0065000000 0.0065000000 0.0065000000 0.0065000000 0.0065000000 0.0065000000 0.0065000000 0.0065000000 0.0065000000 0.0065000000 0.0065000000 0.0065000000 0.0065000000 0.0065000000 0.0065000000 0.0065000000 0.0065000000 0.0065000000 0.0065000000 0.0065000000 0.0065000000 0.0065000000 0.0065000000 0.0065000000 0.0065000000 0.0065000000 0.0065000000 0.0065000000 0.0065000000 0.0065000000 0.0065000000 0.0065000000 0.0065000000 0.0065000000 0.0065000000 0.0065000000 0.0065000000 0.0065000000 0.0065000000 0.0065000000 0.0065000000 0.0065000000 0.0065000000 0.0065000000 0.0065000000 0.0065000000 0.0065000000 0.0065000000 0.0065000000 0.0065000000 0.0065000000 0.0065000000 0.0065000000 0.0065000000 0.0065000000 0.0065000000 0.0065000000 0.0065000000 0.0065000000 0.0065000000 0.0065000000 0.0065000000 0.0065000000 0.0065000000 0.0065000000 0.0065000000 0.0065000000 0.0065000000 0.0065000000 0.0065000000 0.0065000000 0.0065000000 0.0065000000 0.0065000000 0.0065000000 0.0065000000 0.0065000000 0.0065000000 0.0065000000 0.0065000000 0.0065000000 0.0065000000 0.0065000000 0.0065000000 0.0065000000 0.0065000000 0.0065000000 0.0065000000 0.0065000000 0.0065000000 0.0065000000 0.0065000000 0.0065000000 0.0065000000 0.0065000000 0.0065000000 0.0065000000 0.0065000000 0.0065000000 0.0065000000 0.0065000000 0.0065000000 0.0065000000 0.0065000000 0.0065000000 0.0065000000 0.0065000000 0.0065000000 0.0065000000 0.0065000000 0.0065000000 0.0065000000 0.0065000000 0.0065000000 0.0065000000 0.0065000000 0.0065000000 0.0065000000 0.0065000000 0.0065000000 0.0065000000 0.0065000000 0.0065000000 0.0065000000 0.0065000000 0.0065000000 0.0065000000 0.0065000000 0.0065000000 0.0065000000 0.0065000000 0.0065000000 0.0065000000 0.0065000000 0.0065000000 0.0065000000 0.0065000000 0.0065000000 0.0065000000 0.0065000000 0.0065000000 0.0065000000 0.0065000000 0.0065000000 0.0065000000 0.0065000000 0.0065000000 0.0065000000 0.0065000000 0.0065000000 0.0065000000 0.0065000000 0.0065000000 0.0065000000 0.0065000000 0.0065000000 0.0065000000 0.0065000000 0.0065000000 0.0065000000 0.0065000000 0.0065000000 0.0065000000 0.0065000000 0.0065000000 0.0065000000 0.0065000000 0.0065000000 0.0065000000 0.0065000000 0.0065000000 0.0065000000 0.0065000000 0.0065000000 0.0065000000 0.0065000000 0.0065000000 0.0065000000 0.0065000000 0.0065000000 0.0065000000 0.0065000000 0.0065000000 0.0065000000 0.0065000000 0.0065000000 0.0065000000 0.0065000000 0.0065000000 0.0065000000 0.0065000000 0.0065000000 0.0065000000 0.0065000000 0.0065000000 0.0065000000 0.0065000000 0.0065000000 0.0065000000 0.0065000000 0.0065000000 0.0065000000 0.0065000000 0.0065000000 0.0065000000 0.0065000000 0.0065000000 0.0065000000 0.0065000000 0.0065000000 0.0065000000 0.0065000000 0.0065000000 0.0065000000 0.0065000000 0.0065000000 0.0065000000 0.0065000000 0.0065000000 0.0065000000 0.0065000000 0.0065000000 0.0065000000 0.0065000000 0.0065000000 0.0065000000 0.0065000000 0.0065000000 0.0065000000 0.0065000000 0.0065000000 0.0065000000 0.0065000000 0.0065000000 0.0065000000 0.0065000000 0.0065000000 0.0065000000 0.0065000000 0.0065000000 0.0065000000 0.0065000000 0.0065000000 0.0065000000 0.0065000000 0.0065000000 0.0065000000 0.0065000000 0.0065000000 0.0065000000 0.0065000000 0.0065000000 0.0065000000 0.0065000000 0.0065000000 0.0065000000 0.0065000000 0.0065000000 0.0065000000 0.0065000000 0.0065000000 0.0065000000 0.0065000000 0.0065000000 0.0065000000 0.0065000000 0.0065000000 0.0065000000 0.0065000000 0.0065000000 0.0065000000 0.0065000000 0.0065000000 0.0065000000 0.0065000000 0.0065000000 0.0065000000 0.0065000000 0.0065000000 0.0065000000 0.0065000000 0.0065000000 0.0065000000 0.0065000000 0.0065000000 0.0065000000 0.0065000000 0.0065000000 0.0065000000 0.0065000000 0.0065000000 0.0065000000 0.0065000000 0.0065000000 0.0065000000 0.0065000000 0.0065000000 0.0065000000 0.0065000000 0.0065000000 0.0065000000 0.0065000000 0.0065000000 0.0065000000 0.0065000000 0.0065000000 0.0065000000 0.0065000000 0.0065000000 0.0065000000 0.0065000000 0.0065000000 0.0065000000 0.0065000000 0.0065000000 0.0065000000 0.0065000000 0.0065000000 0.0065000000 0.0065000000 0.0065000000 0.0065000000 0.0065000000 0.0065000000 0.0065000000 0.0065000000 0.0065000000 0.0065000000 0.0065000000 0.0065000000 0.0065000000 0.0065000000 0.0065000000 0.0065000000 0.0065000000 0.0065000000 0.0065000000 0.0065000000 0.0065000000 0.0065000000 0.0065000000 0.0065000000 0.0065000000 0.0065000000 0.0065000000 0.0065000000 0.0065000000 0.0065000000 0.0065000000 0.0065000000 0.0065000000 0.0065000000 0.0065000000 0.0065000000 0.0065000000 0.0065000000 0.0065000000 0.0065000000 0.0065000000 0.0065000000 0.0065000000 0.0065000000 0.0065000000 0.0065000000 0.0065000000 0.0065000000 0.0065000000 0.0065000000 0.0065000000 0.0065000000 0.0065000000 0.0065000000 0.0065000000 0.0065000000 0.0065000000 0.0065000000 0.0065000000 0.0065000000 0.0065000000 0.0065000000 0.0065000000 0.0065000000 0.0065000000 0.0065000000 0.0065000000 0.0065000000 0.0065000000 0.0065000000 0.0065000000 0.0065000000 0.0065000000 0.0065000000 0.0065000000 0.0065000000 0.0065000000 0.0065000000 0.0065000000 0.0065000000 0.0065000000 0.0065000000 0.0065000000 0.0065000000 0.0065000000 0.0065000000 0.0065000000 0.0065000000 0.0065000000 0.0065000000 0.0065000000 0.0065000000 0.0065000000 0.0065000000 0.0065000000 0.0065000000 0.0065000000 0.0065000000 0.0065000000 0.0065000000 0.0065000000 0.0065000000 0.0065000000 0.0065000000 0.0065000000 0.0065000000 0.0065000000 0.0065000000 0.0065000000 0.0065000000 0.0065000000 0.0065000000 0.0065000000 0.0065000000 0.0065000000 0.0065000000 0.0065000000 0.0065000000 0.0065000000 0.0065000000 0.0065000000 0.0065000000 0.0065000000 0.0065000000 0.0065000000 0.0065000000 0.0065000000 0.0065000000 0.0065000000 0.0065000000 0.0065000000 0.0065000000 0.0065000000 0.0065000000 0.0065000000 0.0065000000 0.0065000000 0.0065000000 0.0065000000 0.0065000000 0.0065000000 0.0065000000 0.0065000000 0.0065000000 0.0065000000 0.0065000000 0.0065000000 0.0065000000 0.0065000000 0.0065000000 0.0065000000 0.0065000000 0.0065000000 0.0065000000 0.0065000000 0.0065000000 0.0065000000 0.0065000000 0.0065000000 0.0065000000 0.0065000000 0.0065000000 0.0065000000 0.0065000000 0.0065000000 0.0065000000 0.0065000000 0.0065000000 0.0065000000 0.0065000000 0.0065000000 0.0065000000 0.0065000000 0.0065000000 0.0065000000 0.0065000000 0.0065000000 0.0065000000 0.0065000000 0.0065000000 0.0065000000 0.0065000000 0.0065000000 0.0065000000 0.0065000000 0.0065000000 0.0065000000 0.0065000000 0.0065000000 0.0065000000 0.0065000000 0.0065000000 0.0065000000 0.0065000000 0.0065000000 0.0065000000 0.0065000000 0.0065000000 0.0065000000 0.0065000000 0.0065000000 0.0065000000 0.0065000000 0.0065000000 0.0065000000 0.0065000000 0.0065000000 0.0065000000 0.0065000000 0.0065000000 0.0065000000 0.0065000000 0.0065000000 0.0065000000 0.0065000000 0.0065000000 0.0065000000 0.0065000000 0.0065000000 0.0065000000 0.0065000000 0.0065000000 0.0065000000 0.0065000000 0.0065000000 0.0065000000 0.0065000000 0.0065000000 0.0065000000 0.0065000000 0.0065000000 0.0065000000 0.0065000000 0.0065000000 0.0065000000 0.0065000000 0.0065000000 0.0065000000 0.0065000000 0.0065000000 0.0065000000 0.0065000000 0.0065000000 0.0065000000 0.0065000000 0.0065000000 0.0065000000 0.0065000000 0.0065000000 0.0065000000 0.0065000000 0.0065000000 0.0065000000 0.0065000000 0.0065000000 0.0065000000 0.0065000000 0.0065000000 0.0065000000 0.0065000000 0.0065000000 0.0065000000 0.0065000000 0.0065000000 0.0065000000 0.0065000000 0.0065000000 0.0065000000 0.0065000000 0.0065000000 0.0065000000 0.0065000000 0.0065000000 0.0065000000 0.0065000000 0.0065000000 0.0065000000 0.0065000000 0.0065000000 0.0065000000 0.0065000000 0.0065000000 0.0065000000 0.0065000000 0.0065000000 0.0065000000 0.0065000000 0.0065000000 0.0065000000 0.0065000000 0.0065000000 0.0065000000 0.0065000000 0.0065000000 0.0065000000 0.0065000000 0.0065000000 0.0065000000 0.0065000000 0.0065000000 0.0065000000 0.0065000000 0.0065000000 0.0065000000 0.0065000000 0.0065000000 0.0065000000 0.0065000000 0.0065000000 0.0065000000 0.0065000000 0.0065000000 0.0065000000 0.0065000000 0.0065000000 0.0065000000 0.0065000000 0.0065000000 0.0065000000 0.0065000000 0.0065000000 0.0065000000 0.0065000000 0.0065000000 0.0065000000 0.0065000000 0.0065000000 0.0065000000 0.0065000000 0.0065000000 0.0065000000 0.0065000000 0.0065000000 0.0065000000 0.0065000000 0.0065000000 0.0065000000 0.0065000000 0.0065000000 0.0065000000 0.0065000000 0.0065000000 0.0065000000 0.0065000000 0.0065000000 0.0065000000 0.0065000000 0.0065000000 0.0065000000 0.0065000000 0.0065000000 0.0065000000 0.0065000000 0.0065000000 0.0065000000 0.0065000000 0.0065000000 0.0065000000 0.0065000000 0.0065000000 0.0065000000 0.0065000000 0.0065000000 0.0065000000 0.0065000000 0.0065000000 0.0065000000 0.0065000000 0.0065000000 0.0065000000 0.0065000000 0.0065000000 0.0065000000 0.0065000000 0.0065000000 0.0065000000 0.0065000000 0.0065000000 0.0065000000 0.0065000000 0.0065000000 0.0065000000 0.0065000000 0.0065000000 0.0065000000 0.0065000000 0.0065000000 0.0065000000 0.0065000000 0.0065000000 0.0065000000 0.0065000000 0.0065000000 0.0065000000 0.0065000000 0.0065000000 0.0065000000 0.0065000000 0.0065000000 0.0065000000 0.0065000000 0.0065000000 0.0065000000 0.0065000000 0.0065000000 0.0065000000 0.0065000000 0.0065000000 0.0065000000 0.0065000000 0.0065000000 0.0065000000 0.0065000000 0.0065000000 0.0065000000 0.0065000000 0.0065000000 0.0065000000 0.0065000000 0.0065000000 0.0065000000 0.0065000000 0.0065000000 0.0065000000 0.0065000000 0.0065000000 0.0065000000 0.0065000000 0.0065000000 0.0065000000 0.0065000000 0.0065000000 0.0065000000 0.0065000000 0.0065000000 0.0065000000 0.0065000000 0.0065000000 0.0065000000 0.0065000000 0.0065000000 0.0065000000 0.0065000000 0.0065000000 0.0065000000 0.0065000000 0.0065000000 0.0065000000 0.0065000000 0.0065000000 0.0065000000 0.0065000000 0.0065000000 0.0065000000 0.0065000000 0.0065000000 0.0065000000 0.0065000000 0.0065000000 0.0065000000 0.0065000000 0.0065000000 0.0065000000 0.0065000000 0.0065000000 0.0065000000 0.0065000000 0.0065000000 0.0065000000 0.0065000000 0.0065000000 0.0065000000 0.0065000000 0.0065000000 0.0065000000 0.0065000000 0.0065000000 0.0065000000 0.0065000000 0.0065000000 0.0065000000 0.0065000000 0.0065000000 0.0065000000 0.0065000000 0.0065000000 0.0065000000 0.0065000000 0.0065000000 0.0065000000 0.0065000000 0.0065000000 0.0065000000 0.0065000000 0.0065000000 0.0065000000 0.0065000000 0.0065000000 0.0065000000 0.0065000000 0.0065000000 0.0065000000 0.0065000000 0.0065000000 0.0065000000 0.0065000000 0.0065000000 0.0065000000 0.0065000000 0.0065000000 0.0065000000 0.0065000000 0.0065000000 0.0065000000 0.0065000000 0.0065000000 0.0065000000 0.0065000000 0.0065000000 0.0065000000 0.0065000000 0.0065000000 0.0065000000 0.0065000000 0.0065000000 0.0065000000 0.0065000000 0.0065000000 0.0065000000 0.0065000000 0.0065000000 0.0065000000 0.0065000000 0.0065000000 0.0065000000 0.0065000000 0.0065000000 0.0065000000 0.0065000000 0.0065000000 0.0065000000 0.0065000000 0.0065000000 0.0065000000 0.0065000000 0.0065000000 0.0065000000 0.0065000000 0.0065000000 0.0065000000 0.0065000000 0.0065000000 0.0065000000 0.0065000000 0.0065000000 0.0065000000 0.0065000000 0.0065000000 0.0065000000 0.0065000000 0.0065000000 0.0065000000 0.0065000000 0.0065000000 0.0065000000 0.0065000000 0.0065000000 0.0065000000 0.0065000000 0.0065000000 0.0065000000 0.0065000000 0.0065000000 0.0065000000 0.0065000000 0.0065000000 0.0065000000 0.0065000000 0.0065000000 0.0065000000 0.0065000000 0.0065000000 0.0065000000 0.0065000000 0.0065000000 0.0065000000 0.0065000000 0.0065000000 0.0065000000 0.0065000000 0.0065000000 0.0065000000 0.0065000000 0.0065000000 0.0065000000 0.0065000000 0.0065000000 0.0065000000 0.0065000000 0.0065000000 0.0065000000 0.0065000000 0.0065000000 0.0065000000 0.0065000000 0.0065000000 0.0065000000 0.0065000000 0.0065000000 0.0065000000 0.0065000000 0.0065000000 0.0065000000 0.0065000000 0.0065000000 0.0065000000 0.0065000000 0.0065000000 0.0065000000 0.0065000000 0.0065000000 0.0065000000 0.0065000000 0.0065000000 0.0065000000 0.0065000000 0.0065000000 0.0065000000 0.0065000000 0.0065000000 0.0065000000 0.0065000000 0.0065000000 0.0065000000 0.0065000000 0.0065000000 0.0065000000 0.0065000000 0.0065000000 0.0065000000 0.0065000000 0.0065000000 0.0065000000 0.0065000000 0.0065000000 0.0065000000 0.0065000000 0.0065000000 0.0065000000 0.0065000000 0.0065000000 0.0065000000 0.0065000000 0.0065000000 0.0065000000 0.0065000000 0.0065000000 0.0065000000 0.0065000000 0.0065000000 0.0065000000 0.0065000000 0.0065000000 0.0065000000 0.0065000000 0.0065000000 0.0065000000 0.0065000000 0.0065000000 0.0065000000 0.0065000000 0.0065000000 0.0065000000 0.0065000000 0.0065000000 0.0065000000 0.0065000000 0.0065000000 0.0065000000 0.0065000000 0.0065000000 0.0065000000 0.0065000000 0.0065000000 0.0065000000 0.0065000000 0.0065000000 0.0065000000 0.0065000000 0.0065000000 0.0065000000 0.0065000000 0.0065000000 0.0065000000 0.0065000000 0.0065000000 0.0065000000 0.0065000000 0.0065000000 0.0065000000 0.0065000000 0.0065000000 0.0065000000 0.0065000000 0.0065000000 0.0065000000 0.0065000000 0.0065000000 0.0065000000 0.0065000000 0.0065000000 0.0065000000 0.0065000000 0.0065000000 0.0065000000 0.0065000000 0.0065000000 0.0065000000 0.0065000000 0.0065000000 0.0065000000 0.0065000000 0.0065000000 0.0065000000 0.0065000000 0.0065000000 0.0065000000 0.0065000000 0.0065000000 0.0065000000 0.0065000000 0.0065000000 0.0065000000 0.0065000000 0.0065000000 0.0065000000 0.0065000000 0.0065000000 0.0065000000 0.0065000000 0.0065000000 0.0065000000 0.0065000000 0.0065000000 0.0065000000 0.0065000000 0.0065000000 0.0065000000 0.0065000000 0.0065000000 0.0065000000 0.0065000000 0.0065000000 0.0065000000 0.0065000000 0.0065000000 0.0065000000 0.0065000000 0.0065000000 0.0065000000 0.0065000000 0.0065000000 0.0065000000 0.0065000000 0.0065000000 0.0065000000 0.0065000000 0.0065000000 0.0065000000 0.0065000000 0.0065000000 0.0065000000 0.0065000000 0.0065000000 0.0065000000 0.0065000000 0.0065000000 0.0065000000 0.0065000000 0.0065000000 0.0065000000 0.0065000000 0.0065000000 0.0065000000 0.0065000000 0.0065000000 0.0065000000 0.0065000000 0.0065000000 0.0065000000 0.0065000000 0.0065000000 0.0065000000 0.0065000000 0.0065000000 0.0065000000 0.0065000000 0.0065000000 0.0065000000 0.0065000000 0.0065000000 0.0065000000 0.0065000000 0.0065000000 0.0065000000 0.0065000000 0.0065000000 0.0065000000 0.0065000000 0.0065000000 0.0065000000 0.0065000000 0.0065000000 0.0065000000 0.0065000000 0.0065000000 0.0065000000 0.0065000000 0.0065000000 0.0065000000 0.0065000000 0.0065000000 0.0065000000 0.0065000000 0.0065000000 0.0065000000 0.0065000000 0.0065000000 0.0065000000 0.0065000000 0.0065000000 0.0065000000 0.0065000000 0.0065000000 0.0065000000 0.0065000000 0.0065000000 0.0065000000 0.0065000000 0.0065000000 0.0065000000 0.0065000000 0.0065000000 0.0065000000 0.0065000000 0.0065000000 0.0065000000 0.0065000000 0.0065000000 0.0065000000 0.0065000000 0.0065000000 0.0065000000 0.0065000000 0.0065000000 0.0065000000 0.0065000000 0.0065000000 0.0065000000 0.0065000000 0.0065000000 0.0065000000 0.0065000000 0.0065000000 0.0065000000 0.0065000000 0.0065000000 0.0065000000 0.0065000000 0.0065000000 0.0065000000 0.0065000000 0.0065000000 0.0065000000 0.0065000000 0.0065000000 0.0065000000 0.0065000000 0.0065000000 0.0065000000 0.0065000000 0.0065000000 0.0065000000 0.0065000000 0.0065000000 0.0065000000 0.0065000000 0.0065000000 0.0065000000 0.0065000000 0.0065000000 0.0065000000 0.0065000000 0.0065000000 0.0065000000 0.0065000000 0.0065000000 0.0065000000 0.0065000000 0.0065000000 0.0065000000 0.0065000000 0.0065000000 0.0065000000 0.0065000000 0.0065000000 0.0065000000 0.0065000000 0.0065000000 0.0065000000 0.0065000000 0.0065000000 0.0065000000 0.0065000000 0.0065000000 0.0065000000 0.0065000000 0.0065000000 0.0065000000 0.0065000000 0.0065000000 0.0065000000 0.0065000000 0.0065000000 0.0065000000 0.0065000000 0.0065000000 0.0065000000 0.0065000000 0.0065000000 0.0065000000 0.0065000000 0.0065000000 0.0065000000 0.0065000000 0.0065000000 0.0065000000 0.0065000000 0.0065000000 0.0065000000 0.0065000000 0.0065000000 0.0065000000 0.0065000000 0.0065000000 0.0065000000 0.0065000000 0.0065000000 0.0065000000 0.0065000000 0.0065000000 0.0065000000 0.0065000000 0.0065000000 0.0065000000 0.0065000000 0.0065000000 0.0065000000 0.0065000000 0.0065000000 0.0065000000 0.0065000000 0.0065000000 0.0065000000 0.0065000000 0.0065000000 0.0065000000 0.0065000000 0.0065000000 0.0065000000 0.0065000000 0.0065000000 0.0065000000 0.0065000000 0.0065000000 0.0065000000 0.0065000000 0.0065000000 0.0065000000 0.0065000000 0.0065000000 0.0065000000 0.0065000000 0.0065000000 0.0065000000 0.0065000000 0.0065000000 0.0065000000 0.0065000000 0.0065000000 0.0065000000 0.0065000000 0.0065000000 0.0065000000 0.0065000000 0.0065000000 0.0065000000 0.0065000000 0.0065000000 0.0065000000 0.0065000000 0.0065000000 0.0065000000 0.0065000000 0.0065000000 0.0065000000 0.0065000000 0.0065000000 0.0065000000 0.0065000000 0.0065000000 0.0065000000 0.0065000000 0.0065000000 0.0065000000 0.0065000000 0.0065000000 0.0065000000 0.0065000000 0.0065000000 0.0065000000 0.0065000000 0.0065000000 0.0065000000 0.0065000000 0.0065000000 0.0065000000 0.0065000000 0.0065000000 0.0065000000 0.0065000000 0.0065000000 0.0065000000 0.0065000000 0.0065000000 0.0065000000 0.0065000000 0.0065000000 0.0065000000 0.0065000000 0.0065000000 0.0065000000 0.0065000000 0.0065000000 0.0065000000 0.0065000000 0.0065000000 0.0065000000 0.0065000000 0.0065000000 0.0065000000 0.0065000000 0.0065000000 0.0065000000 0.0065000000 0.0065000000 0.0065000000 0.0065000000 0.0065000000 0.0065000000 0.0065000000 0.0065000000 0.0065000000 0.0065000000 0.0065000000 0.0065000000 0.0065000000 0.0065000000 0.0065000000 0.0065000000 0.0065000000 0.0065000000 0.0065000000 0.0065000000 0.0065000000 0.0065000000 0.0065000000 0.0065000000 0.0065000000 0.0065000000 0.0065000000 0.0065000000 0.0065000000 0.0065000000 0.0065000000 0.0065000000 0.0065000000 0.0065000000 0.0065000000 0.0065000000 0.0065000000 0.0065000000 0.0065000000 0.0065000000 0.0065000000 0.0065000000 0.0065000000 0.0065000000 0.0065000000 0.0065000000 0.0065000000 0.0065000000 0.0065000000 0.0065000000 0.0065000000 0.0065000000 0.0065000000 0.0065000000 0.0065000000 0.0065000000 0.0065000000 0.0065000000 0.0065000000 0.0065000000 0.0065000000 0.0065000000 0.0065000000 0.0065000000 0.0065000000 0.0065000000 0.0065000000 0.0065000000 0.0065000000 0.0065000000 0.0065000000 0.0065000000 0.0065000000 0.0065000000 0.0065000000 0.0065000000 0.0065000000 0.0065000000 0.0065000000 0.0065000000 0.0065000000 0.0065000000 0.0065000000 0.0065000000 0.0065000000 0.0065000000 0.0065000000 0.0065000000 0.0065000000 0.0065000000 0.0065000000 0.0065000000 0.0065000000 0.0065000000 0.0065000000 0.0065000000 0.0065000000 0.0065000000 0.0065000000 0.0065000000 0.0065000000 0.0065000000 0.0065000000 0.0065000000 0.0065000000 0.0065000000 0.0065000000 0.0065000000 0.0065000000 0.0065000000 0.0065000000 0.0065000000 0.0065000000 0.0065000000 0.0065000000 0.0065000000 0.0065000000 0.0065000000 0.0065000000 0.0065000000 0.0065000000 0.0065000000 0.0065000000 0.0065000000 0.0065000000 0.0065000000 0.0065000000 0.0065000000 0.0065000000 0.0065000000 0.0065000000 0.0065000000 0.0065000000 0.0065000000 0.0065000000 0.0065000000 0.0065000000 0.0065000000 0.0065000000 0.0065000000 0.0065000000 0.0065000000 0.0065000000 0.0065000000 0.0065000000 0.0065000000 0.0065000000 0.0065000000 0.0065000000 0.0065000000 0.0065000000 0.0065000000 0.0065000000 0.0065000000 0.0065000000 0.006500000