<?xml version="1.0"?>
<VTKFile type="UnstructuredGrid" version="0.1" byte_order="LittleEndian">
  <UnstructuredGrid>
    <FieldData>
      <DataArray type="Float32" Name="TIME"  NumberOfTuples="1" format="ascii"> 2.9979351482 </DataArray>
      <DataArray type="Int32"   Name="STEP"  NumberOfTuples="1" format="ascii"> 40200 </DataArray>
    </FieldData>
    <Piece NumberOfPoints="18081" NumberOfCells="18081">
      <Points>
        <DataArray type="Float32" NumberOfComponents="3" format="ascii">
 0.1116208219 0.0208182550 0.0001819799 0.1099847838 0.0017100362 0.0085444723 0.0654399574 0.0010365740 0.0134800311 0.2564873991 0.0195608484 0.0038431660 0.2193433352 0.0241910571 0.0181133539 0.1394387507 0.0011406456 0.0008924137 0.3739526382 0.0002370225 0.0014798392 0.3923840989 0.0257180410 0.0001941018 0.4500752261 0.0055052080 0.0240583918 0.1922463283 0.0084839103 0.0236380711 0.2554071502 0.0242315816 0.0035749143 0.4052898860 0.0569358097 0.0253663597 0.4718711187 0.0521511856 0.0009280927 0.4138387206 0.0667583719 0.0213405519 0.4293519143 0.0122563956 0.0156941673 0.4246027514 0.0434603106 0.0001399991 0.4289842703 0.0007338146 0.0081417844 0.3724710147 0.0446127191 0.0079855671 0.1661465321 0.0180168356 0.0241779352 0.4561962397 0.0076118452 0.0266680187 0.3149684336 0.0590537504 0.0239408960 0.0505574488 0.0125333783 0.0006839225 0.0301786905 0.0132043126 0.0009459941 0.0012925910 0.0830636113 0.0009110385 0.0146422275 0.0297856216 0.0055547264 0.2453948894 0.0013743178 0.0193454688 0.3323015559 0.0100621961 0.0002948430 0.3176430367 0.0033374820 0.0000232096 0.4771772375 0.0027983058 0.0120207357 0.4301703673 0.0124447195 0.0261292061 0.4148933370 0.0620518676 0.0032544140 0.4080376869 0.0293312911 0.0046426871 0.3917898519 0.0710878118 0.0003339976 0.4507591220 0.0661967729 0.0246920161 0.4262265759 0.0379298785 0.0131119487 0.4082471969 0.0052612199 0.0138195196 0.4640041938 0.0230926553 0.0133717810 0.4042770668 0.0079896385 0.0083867418 0.1569388168 0.0022170135 0.0248039893 0.1913968426 0.0225833356 0.0151915664 0.0331933779 0.0111261961 0.0062033179 0.3328517239 0.0259120152 0.0167785228 0.1812720716 0.0009919782 0.0067250241 0.1171040972 0.0037768553 0.0004842240 0.1134088295 0.0008777988 0.0004051210 0.0553544253 0.0106640744 0.0005508188 0.2145443474 0.0054463781 0.0205891294 0.3670095051 0.0075469725 -0.0001490303 0.3845754987 0.0528193599 0.0003450991 0.2390530482 0.0423698919 0.0214845081 0.1780848281 0.0273557604 0.0289464761 0.3521182100 0.0008270737 0.0006136043 0.4733548684 0.0575083231 0.0006553794 0.3919731150 0.0805310632 0.0103632766 0.3882853699 0.0756836626 0.0005037807 0.4155887797 0.0359613710 0.0161230132 0.3646095184 0.0471369120 0.0142597103 0.2714588005 0.0060071187 0.0161330565 0.4429054832 0.0155600424 0.0207372226 0.4605519005 0.0152279302 0.0262177245 0.4757145796 0.0098905542 0.0244951397 0.3387825519 0.0305207835 0.0098952155 0.2290646734 0.0632309116 0.0271800714 0.0677571463 0.0158905290 0.0003001786 0.1527709762 0.0069569100 0.0074997392 0.1257298600 0.0160129868 0.0141998290 0.1889114958 0.0105857594 0.0222579270 0.2701730407 0.0252317156 0.0163005821 0.3022092124 0.0049670105 0.0131185577 0.3861987784 0.0115771776 0.0012077385 0.3056146050 0.0106860969 0.0050981180 0.4965340498 0.0161894581 0.0097482175 0.4547690600 0.0378047980 0.0184172753 0.3977595098 0.0846680761 0.0056456531 0.3631998104 0.0683104817 0.0056114717 0.3690296812 0.0788445107 0.0200674198 0.4143301855 0.0237878305 0.0148917713 0.3298707359 0.0227254200 0.0172506904 0.3620317422 0.0448247091 0.0185905962 0.0702385566 0.0151543735 0.0088384326 0.2085166696 0.0293092852 0.0160946659 0.0488062953 0.0123641660 0.0087612379 0.4003244507 0.0820034109 0.0169045287 0.3399863468 0.0237734758 0.0087599955 0.1211528622 0.0206809657 0.0033455396 0.1497894760 0.0004429473 0.0056751465 0.2486730930 0.0070210166 0.0111490001 0.1512511090 0.0007993379 0.0008493812 0.0788456033 0.0070691642 0.0005352933 0.2813605602 0.0241633263 0.0062060727 0.3476334255 0.0338529876 0.0001392195 0.4683906711 0.0200213395 0.0157302599 0.1918991267 0.0450727958 0.0285322143 0.4749769346 0.0323642602 0.0013114410 0.4666196653 0.0533065325 0.0105713772 0.3129840591 0.0591341483 0.0105596373 0.3940149330 0.0485081163 0.0007105721 0.4456178320 0.0833402679 0.0087939979 0.3942731151 0.0064214521 0.0134346458 0.1462726546 0.0098679811 0.0232583420 0.3157388013 0.0218377026 0.0142912031 0.2201722156 0.0440497094 0.0277968127 0.4494484781 0.0158993073 0.0255455992 0.3641275925 0.0197057004 0.0229130303 0.3664164918 0.0663141605 0.0250646052 0.0899239868 0.0284779935 0.0001735458 0.1429085648 0.0216959095 0.0001402005 0.1902344483 0.0009591465 0.0039721797 0.0832653895 0.0015865022 0.0075012843 0.1929233546 0.0005648102 0.0005628985 0.2435792672 0.0039477660 -0.0000053145 0.4038323141 0.0163879832 0.0009513002 0.4874046126 0.0015735821 0.0005200907 0.2726564794 0.0297569874 0.0146117928 0.3260032440 0.0229988016 0.0134284007 0.3577796430 0.0549090881 0.0082396408 0.3324667968 0.0573893384 0.0046842488 0.3362906242 0.0639666293 0.0212692780 0.3996524467 0.0708935640 0.0149288340 0.4584552564 0.0243359851 0.0012566358 0.1752927665 0.0294977026 0.0178780418 0.2373188482 0.0223692801 0.0002633103 0.0086864338 0.0188441082 0.0108397970 0.0811437885 0.0117451812 0.0099758587 0.4289062797 0.0160953398 0.0100823046 0.3770122490 0.0403691156 0.0096177901 0.2359610695 0.0061420086 0.0044303162 0.1589551292 0.0082166116 0.0051763862 0.1351411954 0.0009694958 0.0004128841 0.0129200247 0.0308680745 0.0001848986 0.1716359895 0.0189342002 0.0108862416 0.2535930343 0.0034129638 0.0045694026 0.4301745387 0.0399665050 0.0043756633 0.2548109343 0.0317559000 0.0035876780 0.2577979759 0.0047141843 0.0004885550 0.4590179258 0.0625196083 0.0006182302 0.4498410510 0.0061673880 0.0004970632 0.4226977198 0.0926969096 0.0004646401 0.3651524715 0.0611734613 0.0097809700 0.3922705856 0.0862504798 0.0169648933 0.3495293160 0.0187760817 0.0154502635 0.3023830113 0.0333903022 0.0206031443 0.1577256044 0.0129224741 0.0112424729 0.1816487521 0.0432965965 0.0281909263 0.0155271231 0.0377564181 0.0131616132 0.3858876505 0.0616952023 0.0245030966 0.2348773155 0.0375123258 0.0259865447 0.1878878458 0.0030201996 0.0005518815 0.0300172264 0.0146771886 0.0116354154 0.1440536937 0.0370894572 0.0234833303 0.1200377771 0.0017774318 0.0073722130 0.1612235155 0.0200559409 0.0017837414 0.2150844659 0.0417024479 0.0147792628 0.4496021902 0.0112524590 0.0008541269 0.2628837909 0.0265293467 -0.0002710878 0.2699717993 0.0149274453 0.0032662650 0.2961796635 0.0301826094 0.0044062545 0.4499383878 0.0725911664 0.0254643033 0.3782859603 0.0798961899 0.0048922396 0.2683660048 0.0551181737 0.0176852746 0.2820359411 0.0194495560 0.0023291013 0.4142648014 0.0899950458 0.0150738886 0.3107760920 0.0326713052 0.0163658567 0.0152253628 0.0440645754 0.0033273467 0.0220513600 0.0698478406 0.0109547923 0.4340339405 0.0841724427 0.0186235939 0.1487935052 0.0317223908 0.0244484597 0.2737122153 0.0916688167 0.0271679476 0.2113339678 0.0004874592 0.0003936874 0.1654406232 0.0649429112 0.0202027359 0.0890984995 0.0009232631 0.0062485673 0.0960523543 0.0066072437 0.0079291876 0.0571523422 0.0085649264 0.0102366063 0.2821307291 0.0142463471 -0.0002028048 0.3895295964 0.0155205750 0.0002612398 0.2745155562 0.0055978707 0.0003232348 0.3754927972 0.0265312341 0.0093447790 0.2660231913 0.0299225058 0.0170120150 0.3545551710 0.0578845302 0.0101295523 0.4045799390 0.0725734287 0.0116534385 0.4186363739 0.0815920738 0.0234900422 0.3487803686 0.0814535252 0.0125865854 0.2215054397 0.0500006654 0.0039117933 0.2192895099 0.0365383395 0.0001392848 0.3259919692 0.0428322997 0.0233534203 0.4244943502 0.0141727784 0.0180010688 0.4250778305 0.0203524691 0.0132284025 0.3270260635 0.0815003626 0.0136737392 0.1123772994 0.0164477534 0.0217074418 0.2204497735 0.0064338954 0.0058349781 0.2211442833 0.0073119595 0.0147266076 0.1642607929 0.0047812640 0.0002174309 0.1281989520 0.0159977540 0.0006928095 0.0302573779 0.0316551574 0.0115187096 0.3234398469 0.0223366693 0.0000569376 0.4276329557 0.0182508465 0.0001276136 0.4100734658 0.0104029670 0.0055461446 0.4779641399 0.0253146159 0.0009144684 0.3384067229 0.0065015168 0.0003129739 0.3909950330 0.0722344037 0.0079822050 0.3250405456 0.0766004523 0.0006118369 0.4495221518 0.0536208624 0.0183128996 0.4301129871 0.0902403233 0.0047358453 0.3687089802 0.0734134813 0.0093258450 0.3343831868 0.0296647715 0.0224231280 0.2597007205 0.0688560089 0.0257803469 0.3215214756 0.0722130739 0.0249073068 0.2593800115 0.0483709404 0.0246800533 0.1102005808 0.0508972210 0.0202391747 0.4465015031 0.0715315717 0.0201996048 0.2024947927 0.0727318248 0.0002075669 0.1956740087 0.0845577006 0.0057662773 0.2093204182 0.0920006680 0.0047505938 0.1729696962 0.0108487917 0.0101448465 0.1295714214 0.0563701865 0.0151610051 0.2901412501 0.0323312708 -0.0001678218 0.3409257856 0.0403585787 0.0000842898 0.2167825775 0.0540797088 0.0039224864 0.1651821482 0.0340408568 0.0158545271 0.4601534133 0.0295035082 0.0008978918 0.3029362049 0.0709181374 0.0089967555 0.3219200602 0.0837038897 0.0181958882 0.3773328700 0.0988613407 0.0041546304 0.3042851974 0.0794611268 0.0133697864 0.2156547028 0.0429792461 0.0093103015 0.4329833594 0.0696524105 0.0054413287 0.3270597972 0.0717237931 0.0233795444 0.1000215192 0.0472884243 0.0240930098 0.1782276672 0.0359950237 0.0257058248 0.1087628594 0.0712270012 0.0139846484 0.2564300369 0.0809803586 0.0271284862 0.1805191287 0.0457598960 0.0052313039 0.1823459946 0.0582490551 0.0037459383 0.1648748958 0.0876639970 0.0007126030 0.1565557938 0.0061980885 0.0092274381 0.1832972977 0.0267428794 0.0065658864 0.2857870508 0.0348711846 0.0014526382 0.3147903281 0.0436430028 0.0066875708 0.2423079148 0.0328924253 0.0004389866 0.1663386462 0.0165431878 0.0049979782 0.2973757056 0.0516203027 0.0039911723 0.2674396227 0.0836906676 0.0186291938 0.4817520930 0.0661302569 0.0178899549 0.2901512374 0.06
[...]
      <PointData Scalars="smoothLength">
        <DataArray type="Float32" Name="smoothLength" format="ascii">
 0.0065000000 0.0065000000 0.0065000000 0.0065000000 0.0065000000 0.0065000000 0.0065000000 0.0065000000 0.0065000000 0.0065000000 0.0065000000 0.0065000000 0.0065000000 0.0065000000 0.0065000000 0.0065000000 0.0065000000 0.0065000000 0.0065000000 0.0065000000 0.0065000000 0.0065000000 0.0065000000 0.0065000000 0.0065000000 0.0065000000 0.0065000000 0.0065000000 0.0065000000 0.0065000000 0.0065000000 0.0065000000 0.0065000000 0.0065000000 0.0065000000 0.0065000000 0.0065000000 0.0065000000 0.0065000000 0.0065000000 0.0065000000 0.0065000000 0.0065000000 0.0065000000 0.0065000000 0.0065000000 0.0065000000 0.0065000000 0.0065000000 0.0065000000 0.0065000000 0.0065000000 0.0065000000 0.0065000000 0.0065000000 0.0065000000 0.0065000000 0.0065000000 0.0065000000 0.0065000000 0.0065000000 0.0065000000 0.0065000000 0.0065000000 0.0065000000 0.0065000000 0.0065000000 0.0065000000 0.0065000000 0.0065000000 0.0065000000 0.0065000000 0.0065000000 0.0065000000 0.0065000000 0.0065000000 0.0065000000 0.0065000000 0.0065000000 0.0065000000 0.0065000000 0.0065000000 0.0065000000 0.0065000000 0.0065000000 0.0065000000 0.0065000000 0.0065000000 0.0065000000 0.0065000000 0.0065000000 0.0065000000 0.0065000000 0.0065000000 0.0065000000 0.0065000000 0.0065000000 0.0065000000 0.0065000000 0.0065000000 0.0065000000 0.0065000000 0.0065000000 0.0065000000 0.0065000000 0.0065000000 0.0065000000 0.0065000000 0.0065000000 0.0065000000 0.0065000000 0.0065000000 0.0065000000 0.0065000000 0.0065000000 0.0065000000 0.0065000000 0.0065000000 0.0065000000 0.0065000000 0.0065000000 0.0065000000 0.0065000000 0.0065000000 0.0065000000 0.0065000000 0.0065000000 0.0065000000 0.0065000000 0.0065000000 0.0065000000 0.0065000000 0.0065000000 0.0065000000 0.0065000000 0.0065000000 0.0065000000 0.0065000000 0.0065000000 0.0065000000 0.0065000000 0.0065000000 0.0065000000 0.0065000000 0.0065000000 0.0065000000 0.0065000000 0.0065000000 0.0065000000 0.0065000000 0.0065000000 0.0065000000 0.0065000000 0.0065000000 0.0065000000 0.0065000000 0.0065000000 0.0065000000 0.0065000000 0.0065000000 0.0065000000 0.0065000000 0.0065000000 0.0065000000 0.0065000000 0.0065000000 0.0065000000 0.0065000000 0.0065000000 0.0065000000 0.0065000000 0.0065000000 0.0065000000 0.0065000000 0.0065000000 0.0065000000 0.0065000000 0.0065000000 0.0065000000 0.0065000000 0.0065000000 0.0065000000 0.0065000000 0.0065000000 0.0065000000 0.0065000000 0.0065000000 0.0065000000 0.0065000000 0.0065000000 0.0065000000 0.0065000000 0.0065000000 0.0065000000 0.0065000000 0.0065000000 0.0065000000 0.0065000000 0.0065000000 0.0065000000 0.0065000000 0.0065000000 0.0065000000 0.0065000000 0.0065000000 0.0065000000 0.0065000000 0.0065000000 0.0065000000 0.0065000000 0.0065000000 0.0065000000 0.0065000000 0.0065000000 0.0065000000 0.0065000000 0.0065000000 0.0065000000 0.0065000000 0.0065000000 0.0065000000 0.0065000000 0.0065000000 0.0065000000 0.0065000000 0.0065000000 0.0065000000 0.0065000000 0.0065000000 0.0065000000 0.0065000000 0.0065000000 0.0065000000 0.0065000000 0.0065000000 0.0065000000 0.0065000000 0.0065000000 0.0065000000 0.0065000000 0.0065000000 0.0065000000 0.0065000000 0.0065000000 0.0065000000 0.0065000000 0.0065000000 0.0065000000 0.0065000000 0.0065000000 0.0065000000 0.0065000000 0.0065000000 0.0065000000 0.0065000000 0.0065000000 0.0065000000 0.0065000000 0.0065000000 0.0065000000 0.0065000000 0.0065000000 0.0065000000 0.0065000000 0.0065000000 0.0065000000 0.0065000000 0.0065000000 0.0065000000 0.0065000000 0.0065000000 0.0065000000 0.0065000000 0.0065000000 0.0065000000 0.0065000000 0.0065000000 0.0065000000 0.0065000000 0.0065000000 0.0065000000 0.0065000000 0.0065000000 0.0065000000 0.0065000000 0.0065000000 0.0065000000 0.0065000000 0.0065000000 0.0065000000 0.0065000000 0.0065000000 0.0065000000 0.0065000000 0.0065000000 0.0065000000 0.0065000000 0.0065000000 0.0065000000 0.0065000000 0.0065000000 0.0065000000 0.0065000000 0.0065000000 0.0065000000 0.0065000000 0.0065000000 0.0065000000 0.0065000000 0.0065000000 0.0065000000 0.0065000000 0.0065000000 0.0065000000 0.0065000000 0.0065000000 0.0065000000 0.0065000000 0.0065000000 0.0065000000 0.0065000000 0.0065000000 0.0065000000 0.0065000000 0.0065000000 0.0065000000 0.0065000000 0.0065000000 0.0065000000 0.0065000000 0.0065000000 0.0065000000 0.0065000000 0.0065000000 0.0065000000 0.0065000000 0.0065000000 0.0065000000 0.0065000000 0.0065000000 0.0065000000 0.0065000000 0.0065000000 0.0065000000 0.0065000000 0.0065000000 0.0065000000 0.0065000000 0.0065000000 0.0065000000 0.0065000000 0.0065000000 0.0065000000 0.0065000000 0.0065000000 0.0065000000 0.0065000000 0.0065000000 0.0065000000 0.0065000000 0.0065000000 0.0065000000 0.0065000000 0.0065000000 0.0065000000 0.0065000000 0.0065000000 0.0065000000 0.0065000000 0.0065000000 0.0065000000 0.0065000000 0.0065000000 0.0065000000 0.0065000000 0.0065000000 0.0065000000 0.0065000000 0.0065000000 0.0065000000 0.0065000000 0.0065000000 0.0065000000 0.0065000000 0.0065000000 0.0065000000 0.0065000000 0.0065000000 0.0065000000 0.0065000000 0.0065000000 0.0065000000 0.0065000000 0.0065000000 0.0065000000 0.0065000000 0.0065000000 0.0065000000 0.0065000000 0.0065000000 0.0065000000 0.0065000000 0.0065000000 0.0065000000 0.0065000000 0.0065000000 0.0065000000 0.0065000000 0.0065000000 0.0065000000 0.0065000000 0.0065000000 0.0065000000 0.0065000000 0.0065000000 0.0065000000 0.0065000000 0.0065000000 0.0065000000 0.0065000000 0.0065000000 0.0065000000 0.0065000000 0.0065000000 0.0065000000 0.0065000000 0.0065000000 0.0065000000 0.0065000000 0.0065000000 0.0065000000 0.0065000000 0.0065000000 0.0065000000 0.0065000000 0.0065000000 0.0065000000 0.0065000000 0.0065000000 0.0065000000 0.0065000000 0.0065000000 0.0065000000 0.0065000000 0.0065000000 0.0065000000 0.0065000000 0.0065000000 0.0065000000 0.0065000000 0.0065000000 0.0065000000 0.0065000000 0.0065000000 0.0065000000 0.0065000000 0.0065000000 0.0065000000 0.0065000000 0.0065000000 0.0065000000 0.0065000000 0.0065000000 0.0065000000 0.0065000000 0.0065000000 0.0065000000 0.0065000000 0.0065000000 0.0065000000 0.0065000000 0.0065000000 0.0065000000 0.0065000000 0.0065000000 0.0065000000 0.0065000000 0.0065000000 0.0065000000 0.0065000000 0.0065000000 0.0065000000 0.0065000000 0.0065000000 0.0065000000 0.0065000000 0.0065000000 0.0065000000 0.0065000000 0.0065000000 0.0065000000 0.0065000000 0.0065000000 0.0065000000 0.0065000000 0.0065000000 0.0065000000 0.0065000000 0.0065000000 0.0065000000 0.0065000000 0.0065000000 0.0065000000 0.0065000000 0.0065000000 0.0065000000 0.0065000000 0.0065000000 0.0065000000 0.0065000000 0.0065000000 0.0065000000 0.0065000000 0.0065000000 0.0065000000 0.0065000000 0.0065000000 0.0065000000 0.0065000000 0.0065000000 0.0065000000 0.0065000000 0.0065000000 0.0065000000 0.0065000000 0.0065000000 0.0065000000 0.0065000000 0.0065000000 0.0065000000 0.0065000000 0.0065000000 0.0065000000 0.0065000000 0.0065000000 0.0065000000 0.0065000000 0.0065000000 0.0065000000 0.0065000000 0.0065000000 0.0065000000 0.0065000000 0.0065000000 0.0065000000 0.0065000000 0.0065000000 0.0065000000 0.0065000000 0.0065000000 0.0065000000 0.0065000000 0.0065000000 0.0065000000 0.0065000000 0.0065000000 0.0065000000 0.0065000000 0.0065000000 0.0065000000 0.0065000000 0.0065000000 0.0065000000 0.0065000000 0.0065000000 0.0065000000 0.0065000000 0.0065000000 0.0065000000 0.0065000000 0.0065000000 0.0065000000 0.0065000000 0.0065000000 0.0065000000 0.0065000000 0.0065000000 0.0065000000 0.0065000000 0.0065000000 0.0065000000 0.0065000000 0.0065000000 0.0065000000 0.0065000000 0.0065000000 0.0065000000 0.0065000000 0.0065000000 0.0065000000 0.0065000000 0.0065000000 0.0065000000 0.0065000000 0.0065000000 0.0065000000 0.0065000000 0.0065000000 0.0065000000 0.0065000000 0.0065000000 0.0065000000 0.0065000000 0.0065000000 0.0065000000 0.0065000000 0.0065000000 0.0065000000 0.0065000000 0.0065000000 0.0065000000 0.0065000000 0.0065000000 0.0065000000 0.0065000000 0.0065000000 0.0065000000 0.0065000000 0.0065000000 0.0065000000 0.0065000000 0.0065000000 0.0065000000 0.0065000000 0.0065000000 0.0065000000 0.0065000000 0.0065000000 0.0065000000 0.0065000000 0.0065000000 0.0065000000 0.0065000000 0.0065000000 0.0065000000 0.0065000000 0.0065000000 0.0065000000 0.0065000000 0.0065000000 0.0065000000 0.0065000000 0.0065000000 0.0065000000 0.0065000000 0.0065000000 0.0065000000 0.0065000000 0.0065000000 0.0065000000 0.0065000000 0.0065000000 0.0065000000 0.0065000000 0.0065000000 0.0065000000 0.0065000000 0.0065000000 0.0065000000 0.0065000000 0.0065000000 0.0065000000 0.0065000000 0.0065000000 0.0065000000 0.0065000000 0.0065000000 0.0065000000 0.0065000000 0.0065000000 0.0065000000 0.0065000000 0.0065000000 0.0065000000 0.0065000000 0.0065000000 0.0065000000 0.0065000000 0.0065000000 0.0065000000 0.0065000000 0.0065000000 0.0065000000 0.0065000000 0.0065000000 0.0065000000 0.0065000000 0.0065000000 0.0065000000 0.0065000000 0.0065000000 0.0065000000 0.0065000000 0.0065000000 0.0065000000 0.0065000000 0.0065000000 0.0065000000 0.0065000000 0.0065000000 0.0065000000 0.0065000000 0.0065000000 0.0065000000 0.0065000000 0.0065000000 0.0065000000 0.0065000000 0.0065000000 0.0065000000 0.0065000000 0.0065000000 0.0065000000 0.0065000000 0.0065000000 0.0065000000 0.0065000000 0.0065000000 0.0065000000 0.0065000000 0.0065000000 0.0065000000 0.0065000000 0.0065000000 0.0065000000 0.0065000000 0.0065000000 0.0065000000 0.0065000000 0.0065000000 0.0065000000 0.0065000000 0.0065000000 0.0065000000 0.0065000000 0.0065000000 0.0065000000 0.0065000000 0.0065000000 0.0065000000 0.0065000000 0.0065000000 0.0065000000 0.0065000000 0.0065000000 0.0065000000 0.0065000000 0.0065000000 0.0065000000 0.0065000000 0.0065000000 0.0065000000 0.0065000000 0.0065000000 0.0065000000 0.0065000000 0.0065000000 0.0065000000 0.0065000000 0.0065000000 0.0065000000 0.0065000000 0.0065000000 0.0065000000 0.0065000000 0.0065000000 0.0065000000 0.0065000000 0.0065000000 0.0065000000 0.0065000000 0.0065000000 0.0065000000 0.0065000000 0.0065000000 0.0065000000 0.0065000000 0.0065000000 0.0065000000 0.0065000000 0.0065000000 0.0065000000 0.0065000000 0.0065000000 0.0065000000 0.0065000000 0.0065000000 0.0065000000 0.0065000000 0.0065000000 0.0065000000 0.0065000000 0.0065000000 0.0065000000 0.0065000000 0.0065000000 0.0065000000 0.0065000000 0.0065000000 0.0065000000 0.0065000000 0.0065000000 0.0065000000 0.0065000000 0.0065000000 0.0065000000 0.0065000000 0.0065000000 0.0065000000 0.0065000000 0.0065000000 0.0065000000 0.0065000000 0.0065000000 0.0065000000 0.0065000000 0.0065000000 0.0065000000 0.0065000000 0.0065000000 0.0065000000 0.0065000000 0.0065000000 0.0065000000 0.0065000000 0.0065000000 0.0065000000 0.0065000000 0.0065000000 0.0065000000 0.0065000000 0.0065000000 0.0065000000 0.0065000000 0.0065000000 0.0065000000 0.0065000000 0.0065000000 0.0065000000 0.0065000000 0.0065000000 0.0065000000 0.0065000000 0.0065000000 0.0065000000 0.0065000000 0.0065000000 0.0065000000 0.0065000000 0.0065000000 0.0065000000 0.0065000000 0.0065000000 0.0065000000 0.0065000000 0.0065000000 0.0065000000 0.0065000000 0.0065000000 0.0065000000 0.0065000000 0.0065000000 0.0065000000 0.0065000000 0.0065000000 0.0065000000 0.0065000000 0.0065000000 0.0065000000 0.0065000000 0.0065000000 0.0065000000 0.0065000000 0.0065000000 0.0065000000 0.0065000000 0.0065000000 0.0065000000 0.0065000000 0.0065000000 0.0065000000 0.0065000000 0.0065000000 0.0065000000 0.0065000000 0.0065000000 0.0065000000 0.0065000000 0.0065000000 0.0065000000 0.0065000000 0.0065000000 0.0065000000 0.0065000000 0.0065000000 0.0065000000 0.0065000000 0.0065000000 0.0065000000 0.0065000000 0.0065000000 0.0065000000 0.0065000000 0.0065000000 0.0065000000 0.0065000000 0.0065000000 0.0065000000 0.0065000000 0.0065000000 0.0065000000 0.0065000000 0.0065000000 0.0065000000 0.0065000000 0.0065000000 0.0065000000 0.0065000000 0.0065000000 0.0065000000 0.0065000000 0.0065000000 0.0065000000 0.0065000000 0.0065000000 0.0065000000 0.0065000000 0.0065000000 0.0065000000 0.0065000000 0.0065000000 0.0065000000 0.0065000000 0.0065000000 0.0065000000 0.0065000000 0.0065000000 0.0065000000 0.0065000000 0.0065000000 0.0065000000 0.0065000000 0.0065000000 0.0065000000 0.0065000000 0.0065000000 0.0065000000 0.0065000000 0.0065000000 0.0065000000 0.0065000000 0.0065000000 0.0065000000 0.0065000000 0.0065000000 0.0065000000 0.0065000000 0.0065000000 0.0065000000 0.0065000000 0.0065000000 0.0065000000 0.0065000000 0.0065000000 0.0065000000 0.0065000000 0.0065000000 0.0065000000 0.0065000000 0.0065000000 0.0065000000 0.0065000000 0.0065000000 0.0065000000 0.0065000000 0.0065000000 0.0065000000 0.0065000000 0.0065000000 0.0065000000 0.0065000000 0.0065000000 0.0065000000 0.0065000000 0.0065000000 0.0065000000 0.0065000000 0.0065000000 0.0065000000 0.0065000000 0.0065000000 0.0065000000 0.0065000000 0.0065000000 0.0065000000 0.0065000000 0.0065000000 0.0065000000 0.0065000000 0.0065000000 0.0065000000 0.0065000000 0.0065000000 0.0065000000 0.0065000000 0.0065000000 0.0065000000 0.0065000000 0.0065000000 0.0065000000 0.0065000000 0.0065000000 0.0065000000 0.0065000000 0.0065000000 0.0065000000 0.0065000000 0.0065000000 0.0065000000 0.0065000000 0.0065000000 0.0065000000 0.0065000000 0.0065000000 0.0065000000 0.0065000000 0.0065000000 0.0065000000 0.0065000000 0.0065000000 0.0065000000 0.0065000000 0.0065000000 0.0065000000 0.0065000000 0.0065000000 0.0065000000 0.0065000000 0.0065000000 0.0065000000 0.0065000000 0.0065000000 0.0065000000 0.0065000000 0.0065000000 0.0065000000 0.0065000000 0.0065000000 0.0065000000 0.0065000000 0.0065000000 0.0065000000 0.0065000000 0.0065000000 0.0065000000 0.0065000000 0.0065000000 0.0065000000 0.0065000000 0.0065000000 0.0065000000 0.0065000000 0.0065000000 0.0065000000 0.0065000000 0.0065000000 0.0065000000 0.0065000000 0.0065000000 0.0065000000 0.0065000000 0.0065000000 0.0065000000 0.0065000000 0.0065000000 0.0065000000 0.0065000000 0.0065000000 0.0065000000 0.0065000000 0.0065000000 0.0065000000 0.0065000000 0.0065000000 0.0065000000 0.0065000000 0.0065000000 0.0065000000 0.0065000000 0.0065000000 0.0065000000 0.0065000000 0.0065000000 0.0065000000 0.0065000000 0.0065000000 0.0065000000 0.0065000000 0.0065000000 0.0065000000 0.0065000000 0.0065000000 0.0065000000 0.0065000000 0.0065000000 0.0065000000 0.0065000000 0.0065000000 0.0065000000 0.0065000000 0.0065000000 0.0065000000 0.0065000000 0.0065000000 0.0065000000 0.0065000000 0.0065000000 0.0065000000 0.0065000000 0.0065000000 0.0065000000 0.0065000000 0.0065000000 0.0065000000 0.0065000000 0.0065000000 0.0065000000 0.0065000000 0.0065000000 0.0065000000 0.0065000000 0.0065000000 0.0065000000 0.0065000000 0.0065000000 0.0065000000 0.0065000000 0.0065000000 0.0065000000 0.0065000000 0.0065000000 0.0065000000 0.0065000000 0.0065000000 0.0065000000 0.0065000000 0.0065000000 0.0065000000 0.0065000000 0.0065000000 0.0065000000 0.0065000000 0.0065000000 0.0065000000 0.0065000000 0.0065000000 0.0065000000 0.0065000000 0.0065000000 0.0065000000 0.0065000000 0.0065000000 0.0065000000 0.0065000000 0.0065000000 0.0065000000 0.0065000000 0.0065000000 0.0065000000 0.0065000000 0.0065000000 0.0065000000 0.0065000000 0.0065000000 0.0065000000 0.0065000000 0.0065000000 0.0065000000 0.0065000000 0.0065000000 0.0065000000 0.0065000000 0.0065000000 0.0065000000 0.0065000000 0.0065000000 0.0065000000 0.0065000000 0.0065000000 0.0065000000 0.0065000000 0.0065000000 0.0065000000 0.0065000000 0.0065000000 0.0065000000 0.0065000000 0.0065000000 0.0065000000 0.0065000000 0.0065000000 0.0065000000 0.0065000000 0.0065000000 0.0065000000 0.0065000000 0.0065000000 0.0065000000 0.0065000000 0.0065000000 0.0065000000 0.0065000000 0.0065000000 0.0065000000 0.0065000000 0.0065000000 0.0065000000 0.0065000000 0.0065000000 0.0065000000 0.0065000000 0.0065000000 0.0065000000 0.0065000000 0.0065000000 0.0065000000 0.0065000000 0.0065000000 0.0065000000 0.0065000000 0.0065000000 0.0065000000 0.0065000000 0.0065000000 0.0065000000 0.0065000000 0.0065000000 0.0065000000 0.0065000000 0.0065000000 0.0065000000 0.0065000000 0.0065000000 0.0065000000 0.0065000000 0.0065000000 0.0065000000 0.0065000000 0.0065000000 0.0065000000 0.0065000000 0.0065000000 0.0065000000 0.0065000000 0.0065000000 0.0065000000 0.0065000000 0.0065000000 0.0065000000 0.0065000000 0.0065000000 0.0065000000 0.0065000000 0.0065000000 0.0065000000 0.0065000000 0.0065000000 0.0065000000 0.0065000000 0.0065000000 0.0065000000 0.0065000000 0.0065000000 0.0065000000 0.0065000000 0.0065000000 0.0065000000 0.0065000000 0.0065000000 0.0065000000 0.0065000000 0.0065000000 0.0065000000 0.0065000000 0.0065000000 0.0065000000 0.0065000000 0.0065000000 0.0065000000 0.0065000000 0.0065000000 0.0065000000 0.0065000000 0.0065000000 0.0065000000 0.0065000000 0.0065000000 0.0065000000 0.0065000000 0.0065000000 0.0065000000 0.0065000000 0.0065000000 0.0065000000 0.0065000000 0.0065000000 0.0065000000 0.0065000000 0.0065000000 0.0065000000 0.0065000000 0.0065000000 0.0065000000 0.0065000000 0.0065000000 0.0065000000 0.0065000000 0.0065000000 0.0065000000 0.0065000000 0.0065000000 0.0065000000 0.0065000000 0.0065000000 0.0065000000 0.0065000000 0.0065000000 0.0065000000 0.0065000000 0.0065000000 0.0065000000 0.0065000000 0.0065000000 0.0065000000 0.0065000000 0.0065000000 0.0065000000 0.0065000000 0.0065000000 0.0065000000 0.0065000000 0.0065000000 0.0065000000 0.0065000000 0.0065000000 0.0065000000 0.0065000000 0.0065000000 0.0065000000 0.0065000000 0.0065000000 0.0065000000 0.0065000000 0.0065000000 0.0065000000 0.0065000000 0.0065000000 0.0065000000 0.0065000000 0.0065000000 0.0065000000 0.0065000000 0.0065000000 0.0065000000 0.0065000000 0.0065000000 0.0065000000 0.0065000000 0.0065000000 0.0065000000 0.0065000000 0.0065000000 0.0065000000 0.0065000000 0.0065000000 0.0065000000 0.0065000000 0.0065000000 0.0065000000 0.0065000000 0.0065000000 0.0065000000 0.0065000000 0.0065000000 0.0065000000 0.0065000000 0.0065000000 0.0065000000 0.0065000000 0.0065000000 0.0065000000 0.0065000000 0.0065000000 0.0065000000 0.0065000000 0.0065000000 0.0065000000 0.0065000000 0.0065000000 0.0065000000 0.0065000000 0.0065000000 0.0065000000 0.0065000000 0.0065000000 0.0065000000 0.0065000000 0.0065000000 0.0065000000 0.0065000000 0.0065000000 0.0065000000 0.0065000000 0.0065000000 0.0065000000 0.0065000000 0.0065000000 0.0065000000 0.0065000000 0.0065000000 0.0065000000 0.0065000000 0.0065000000 0.0065000000 0.0065000000 0.0065000000 0.0065000000 0.0065000000 0.0065000000 0.0065000000 0.0065000000 0.0065000000 0.0065000000 0.0065000000 0.0065000000 0.0065000000 0.0065000000 0.0065000000 0.0065000000 0.0065000000 0.0065000000 0.0065000000 0.0065000000 0.0065000000 0.0065000000 0.0065000000 0.0065000000 0.0065000000 0.0065000000 0.0065000000 0.0065000000 0.0065000000 0.0065000000 0.0065000000 0.0065000000 0.0065000000 0.0065000000 0.0065000000 0.0065000000 0.0065000000 0.0065000000 0.0065000000 0.0065000000 0.0065000000 0.0065000000 0.0065000000 0.0065000000 0.0065000000 0.0065000000 0.0065000000 0.0065000000 0.0065000000 0.0065000000 0.0065000000 0.0065000000 0.0065000000 0.0065000000 0.0065000000 0.0065000000 0.0065000000 0.0065000000 0.0065000000 0.0065000000 0.0065000000 0.0065000000 0.0065000000 0.0065000000 0.0065000000 0.0065000000 0.0065000000 0.0065000000 0.0065000000 0.0065000000 0.0065000000 0.0065000000 0.0065000000 0.0065000000 0.0065000000 0.0065000000 0.0065000000 0.0065000000 0.0065000000 0.0065000000 0.0065000000 0.0065000000 0.0065000000 0.0065000000 0.0065000000 0.0065000000 0.0065000000 0.0065000000 0.0065000000 0.0065000000 0.0065000000 0.0065000000 0.0065000000 0.0065000000 0.0065000000 0.0065000000 0.0065000000 0.0065000000 0.0065000000 0.0065000000 0.0065000000 0.0065000000 0.0065000000 0.0065000000 0.0065000000 0.0065000000 0.006500000