<?xml version="1.0"?>
<VTKFile type="UnstructuredGrid" version="0.1" byte_order="LittleEndian">
  <UnstructuredGrid>
    <FieldData>
      <DataArray type="Float32" Name="TIME"  NumberOfTuples="1" format="ascii"> 2.7980728050 </DataArray>
      <DataArray type="Int32"   Name="STEP"  NumberOfTuples="1" format="ascii"> 37520 </DataArray>
    </FieldData>
    <Piece NumberOfPoints="18081" NumberOfCells="18081">
      <Points>
        <DataArray type="Float32" NumberOfComponents="3" format="ascii">
 0.1204393670 0.0231774595 0.0004193427 0.1223071965 0.0005957451 0.0084391762 0.0734968279 0.0006973241 0.0111891030 0.2766944462 0.0177446552 0.0058915436 0.2451579461 0.0230723618 0.0154444743 0.1504398650 0.0005501146 0.0015795355 0.3719779174 0.0005600753 0.0028671679 0.3883836816 0.0226587915 0.0005872165 0.4554564899 0.0045465256 0.0256560671 0.2240590862 0.0037035098 0.0195029854 0.2760621716 0.0221246498 0.0035257352 0.4294777025 0.0563166665 0.0280815643 0.4695847563 0.0478034361 0.0006059892 0.4315533160 0.0700337868 0.0238114596 0.4389314254 0.0136841885 0.0158368445 0.4232157747 0.0395800137 0.0003309733 0.4245044612 0.0011817218 0.0105417077 0.3789714406 0.0398313111 0.0088169286 0.1949888415 0.0228487432 0.0197521588 0.4618214417 0.0050356876 0.0286306528 0.3530305898 0.0520452843 0.0263884892 0.0534848076 0.0120806234 0.0002225947 0.0334493036 0.0121945838 0.0005419147 0.0021257513 0.0780314993 0.0002509680 0.0140382372 0.0271481399 0.0066794612 0.2789600523 0.0003343097 0.0198476932 0.3337191140 0.0095686421 0.0006743763 0.3241062024 0.0037786942 0.0004394086 0.4775285507 0.0009423675 0.0100797835 0.4429250670 0.0122338932 0.0287427721 0.4196249961 0.0579752385 0.0047399560 0.4062455029 0.0275603288 0.0037910373 0.3924303047 0.0683633670 0.0002486700 0.4619055958 0.0686655528 0.0266141218 0.4374020658 0.0373398618 0.0147562072 0.4155353542 0.0092478415 0.0176101977 0.4699635186 0.0227377070 0.0133933660 0.4028998596 0.0071247615 0.0085836482 0.1942079879 0.0047449252 0.0233671176 0.2157337147 0.0234844567 0.0138155112 0.0348382405 0.0083031470 0.0044654918 0.3540731328 0.0235632884 0.0215308888 0.1973376580 -0.0000054134 0.0036744765 0.1291226120 0.0046568828 0.0004728455 0.1205542566 0.0022418770 0.0001990540 0.0590469646 0.0098112827 0.0005917528 0.2411294093 0.0031993196 0.0179726363 0.3614829664 0.0084031369 -0.0000229393 0.3811287987 0.0462845650 0.0000520502 0.2739623675 0.0426180966 0.0236074328 0.2096823597 0.0292692979 0.0237533594 0.3459969936 0.0008531064 0.0003603111 0.4743230324 0.0546308682 0.0012803147 0.4012197529 0.0759588255 0.0100805976 0.3905514252 0.0728002821 0.0024872102 0.4306393071 0.0342373072 0.0180106008 0.3907760818 0.0475366023 0.0185057083 0.2981850502 0.0014580400 0.0210501173 0.4499399611 0.0171521612 0.0231529391 0.4650739833 0.0109527153 0.0283000442 0.4787589797 0.0109492004 0.0267245967 0.3491798544 0.0264825519 0.0092345742 0.2682673197 0.0608019380 0.0262440459 0.0732517291 0.0184123862 0.0005634732 0.1658986986 0.0100367657 0.0029866554 0.1450390941 0.0118128595 0.0156225479 0.2227032634 0.0098371622 0.0179662627 0.2987960809 0.0229744745 0.0201217433 0.3224730599 0.0050093129 0.0155787411 0.3843440982 0.0109482596 0.0050656422 0.3199148442 0.0106681765 0.0083499920 0.4990218265 0.0145681131 0.0099027045 0.4667827139 0.0372426362 0.0210927231 0.4067584237 0.0862082834 0.0058245656 0.3674700056 0.0658716263 0.0049680461 0.3938694223 0.0732475157 0.0194198232 0.4206570099 0.0230429748 0.0197368578 0.3526143117 0.0184383100 0.0229703463 0.3940470296 0.0443602237 0.0218097379 0.0781868093 0.0144981104 0.0083545270 0.2355336137 0.0290817580 0.0151955541 0.0524817996 0.0094631992 0.0085191180 0.4172852842 0.0800136174 0.0196654696 0.3529257916 0.0236482765 0.0131635291 0.1299774918 0.0213422851 0.0010733452 0.1627472571 0.0013544065 0.0016997086 0.2739840349 0.0084936270 0.0116681113 0.1665083287 0.0006429146 0.0009382748 0.0885081797 0.0085483644 0.0007589348 0.3002623874 0.0218781902 0.0063971017 0.3532616500 0.0306647573 -0.0000758930 0.4732290153 0.0192638888 0.0160336774 0.2238419956 0.0451194123 0.0238038228 0.4714828310 0.0298067373 0.0008790273 0.4722888914 0.0535391444 0.0106849954 0.3361613939 0.0562450311 0.0131476958 0.3936929371 0.0477651151 0.0006831520 0.4459902881 0.0841197201 0.0099886366 0.3994346268 0.0103068454 0.0126454550 0.1810895311 0.0134109351 0.0198649445 0.3365872747 0.0188757123 0.0212874736 0.2536383270 0.0413154960 0.0248794965 0.4570890394 0.0108821688 0.0279956016 0.3865887719 0.0217763046 0.0282436889 0.3933421296 0.0678813235 0.0264991251 0.0955272423 0.0284833849 0.0008390817 0.1517733027 0.0243790975 -0.0000634626 0.2075890486 0.0001004671 0.0028041729 0.0906517329 0.0006797191 0.0062452523 0.2110858245 0.0016060235 0.0004038322 0.2655916423 0.0063613286 -0.0003162959 0.3983027854 0.0109508046 0.0006083210 0.4834787352 0.0008490191 0.0018589127 0.3031658934 0.0259495354 0.0197375026 0.3428789970 0.0206028150 0.0176198165 0.3669506398 0.0482990779 0.0078987583 0.3370263767 0.0558435001 0.0046429762 0.3696252476 0.0628769904 0.0229752126 0.4160295519 0.0667854470 0.0157615376 0.4505289763 0.0211183767 0.0003064996 0.2012777725 0.0292111064 0.0141153268 0.2617449255 0.0211618214 0.0003537048 0.0066538150 0.0131815376 0.0129477357 0.0919341222 0.0113081996 0.0091766467 0.4245949899 0.0175783245 0.0081463549 0.3854300989 0.0374478454 0.0066696412 0.2564324557 0.0077097191 0.0053987550 0.1704433789 0.0098479321 0.0051281061 0.1453671680 0.0005020112 0.0012790343 0.0135491774 0.0287202268 0.0003361800 0.1887330181 0.0202173467 0.0095988659 0.2755820679 0.0023295014 0.0032275064 0.4322383085 0.0388195047 0.0067224695 0.2759449511 0.0307186725 0.0050346937 0.2788215790 0.0045027564 -0.0002564983 0.4640003173 0.0605165812 0.0003560619 0.4421685951 0.0066143926 0.0004359911 0.4218065968 0.0893212041 0.0002869508 0.3761937533 0.0549583558 0.0087464840 0.4081618100 0.0831667121 0.0188569811 0.3661495128 0.0199288170 0.0203393175 0.3322664766 0.0271359439 0.0268376102 0.1720150994 0.0152218759 0.0077270746 0.2125822950 0.0462359311 0.0236763762 0.0166730198 0.0332800852 0.0144083124 0.4164770698 0.0621199068 0.0265460022 0.2751114054 0.0380788210 0.0266852787 0.2052006856 0.0031142099 0.0000563330 0.0301220425 0.0093867906 0.0109551751 0.1731584417 0.0412627537 0.0177123137 0.1291394344 0.0018691782 0.0059852436 0.1749010884 0.0214209307 0.0001977884 0.2418767675 0.0416120231 0.0142211097 0.4379513813 0.0112626564 0.0002108709 0.2830513651 0.0295877865 -0.0001367714 0.2901439755 0.0169190433 0.0042028968 0.3106876093 0.0284885222 0.0048533672 0.4581023513 0.0747846025 0.0271802723 0.3855865322 0.0759768170 0.0056269990 0.3023342526 0.0528246564 0.0194513252 0.2982576469 0.0175046452 0.0039740983 0.4233506371 0.0905867675 0.0153369222 0.3357138187 0.0275511322 0.0215127473 0.0163572094 0.0379155795 0.0042186084 0.0193293352 0.0639095931 0.0090011373 0.4451496562 0.0861095508 0.0193823049 0.1790478010 0.0413586934 0.0222098977 0.3109860978 0.0876817908 0.0271913590 0.2298666593 0.0005127757 0.0011239880 0.1860449114 0.0620223640 0.0173938674 0.0969898112 0.0006122539 0.0038977787 0.1038388534 0.0044672674 0.0066169425 0.0651056980 0.0077789069 0.0094200003 0.2974015425 0.0131995035 0.0002991047 0.3829854281 0.0137652765 0.0002016625 0.2915725808 0.0045411146 0.0000149984 0.3808749176 0.0232801501 0.0114180011 0.2980154755 0.0288170384 0.0213483716 0.3635637880 0.0519198741 0.0112932397 0.4156711998 0.0706857000 0.0110385181 0.4340431542 0.0862224511 0.0248735629 0.3683873403 0.0798717286 0.0125402033 0.2457822387 0.0513679866 0.0043272821 0.2441591944 0.0364725148 -0.0001981030 0.3551315502 0.0371345361 0.0278373677 0.4332004290 0.0151984735 0.0196699253 0.4284965639 0.0174246619 0.0145436662 0.3471416874 0.0759409354 0.0143744647 0.1572317159 0.0211332712 0.0220913127 0.2401011677 0.0067774066 0.0034295922 0.2463977942 0.0089196596 0.0150072895 0.1781314996 0.0064794137 0.0000125049 0.1380136145 0.0173215142 0.0009159213 0.0297319408 0.0258787670 0.0118422043 0.3313586925 0.0191056814 0.0049424251 0.4196472817 0.0190536705 0.0003150395 0.4058873739 0.0091487613 0.0040731763 0.4727363591 0.0230462093 0.0006905428 0.3404667255 0.0069834901 -0.0005829131 0.3957536904 0.0669659272 0.0076068623 0.3335033158 0.0779679193 0.0002234998 0.4627893244 0.0514017940 0.0182439349 0.4322217256 0.0898107143 0.0046984642 0.3782048521 0.0675888651 0.0084041999 0.3635147185 0.0283636388 0.0286457952 0.2985371485 0.0648491111 0.0275302088 0.3588862843 0.0682121604 0.0254926596 0.2998376789 0.0459331332 0.0276419933 0.1441701283 0.0515491783 0.0168349114 0.4576676522 0.0737519252 0.0207716211 0.2239750385 0.0725895783 0.0009787545 0.2170538105 0.0835073884 0.0046718730 0.2315901392 0.0926668229 0.0020723947 0.1889604998 0.0139442691 0.0092372147 0.1477705176 0.0533090764 0.0112415441 0.3055912508 0.0314193416 -0.0002033086 0.3432406859 0.0329074814 0.0001365786 0.2431750186 0.0562249937 0.0043099876 0.1851400458 0.0352448298 0.0150875718 0.4540276025 0.0253689483 0.0008560432 0.3238381467 0.0687308470 0.0088045732 0.3507217013 0.0818273638 0.0167915930 0.3873356167 0.0933955207 0.0084351089 0.3293102870 0.0784972542 0.0141256101 0.2462079444 0.0432055565 0.0091840059 0.4347393380 0.0675550887 0.0064889280 0.3597059814 0.0629401501 0.0237515902 0.1465296551 0.0392605054 0.0279538216 0.2086911657 0.0352578903 0.0209006951 0.1177256536 0.0710225089 0.0126644225 0.2970348266 0.0776970123 0.0282459668 0.1992867054 0.0483866132 0.0009318245 0.2014217897 0.0596563874 0.0018963255 0.1745726734 0.0868211207 0.0014666750 0.1684806415 0.0056180139 0.0069149811 0.2033872333 0.0267284184 0.0048494683 0.3015955827 0.0324805599 0.0050138976 0.3287932316 0.0400571302 0.0080683919 0.2642747020 0.0314256540 0.0003335683 0.1813898918 0.0164809980 0.0064120264 0.3162589868 0.0528880715 0.0052106934 0.3028272092 0.0780743733 0.0192997986 0.4841449928 0.0659899213 0.0169172219 0.3105351501
[...]
      <PointData Scalars="smoothLength">
        <DataArray type="Float32" Name="smoothLength" format="ascii">
 0.0065000000 0.0065000000 0.0065000000 0.0065000000 0.0065000000 0.0065000000 0.0065000000 0.0065000000 0.0065000000 0.0065000000 0.0065000000 0.0065000000 0.0065000000 0.0065000000 0.0065000000 0.0065000000 0.0065000000 0.0065000000 0.0065000000 0.0065000000 0.0065000000 0.0065000000 0.0065000000 0.0065000000 0.0065000000 0.0065000000 0.0065000000 0.0065000000 0.0065000000 0.0065000000 0.0065000000 0.0065000000 0.0065000000 0.0065000000 0.0065000000 0.0065000000 0.0065000000 0.0065000000 0.0065000000 0.0065000000 0.0065000000 0.0065000000 0.0065000000 0.0065000000 0.0065000000 0.0065000000 0.0065000000 0.0065000000 0.0065000000 0.0065000000 0.0065000000 0.0065000000 0.0065000000 0.0065000000 0.0065000000 0.0065000000 0.0065000000 0.0065000000 0.0065000000 0.0065000000 0.0065000000 0.0065000000 0.0065000000 0.0065000000 0.0065000000 0.0065000000 0.0065000000 0.0065000000 0.0065000000 0.0065000000 0.0065000000 0.0065000000 0.0065000000 0.0065000000 0.0065000000 0.0065000000 0.0065000000 0.0065000000 0.0065000000 0.0065000000 0.0065000000 0.0065000000 0.0065000000 0.0065000000 0.0065000000 0.0065000000 0.0065000000 0.0065000000 0.0065000000 0.0065000000 0.0065000000 0.0065000000 0.0065000000 0.0065000000 0.0065000000 0.0065000000 0.0065000000 0.0065000000 0.0065000000 0.0065000000 0.0065000000 0.0065000000 0.0065000000 0.0065000000 0.0065000000 0.0065000000 0.0065000000 0.0065000000 0.0065000000 0.0065000000 0.0065000000 0.0065000000 0.0065000000 0.0065000000 0.0065000000 0.0065000000 0.0065000000 0.0065000000 0.0065000000 0.0065000000 0.0065000000 0.0065000000 0.0065000000 0.0065000000 0.0065000000 0.0065000000 0.0065000000 0.0065000000 0.0065000000 0.0065000000 0.0065000000 0.0065000000 0.0065000000 0.0065000000 0.0065000000 0.0065000000 0.0065000000 0.0065000000 0.0065000000 0.0065000000 0.0065000000 0.0065000000 0.0065000000 0.0065000000 0.0065000000 0.0065000000 0.0065000000 0.0065000000 0.0065000000 0.0065000000 0.0065000000 0.0065000000 0.0065000000 0.0065000000 0.0065000000 0.0065000000 0.0065000000 0.0065000000 0.0065000000 0.0065000000 0.0065000000 0.0065000000 0.0065000000 0.0065000000 0.0065000000 0.0065000000 0.0065000000 0.0065000000 0.0065000000 0.0065000000 0.0065000000 0.0065000000 0.0065000000 0.0065000000 0.0065000000 0.0065000000 0.0065000000 0.0065000000 0.0065000000 0.0065000000 0.0065000000 0.0065000000 0.0065000000 0.0065000000 0.0065000000 0.0065000000 0.0065000000 0.0065000000 0.0065000000 0.0065000000 0.0065000000 0.0065000000 0.0065000000 0.0065000000 0.0065000000 0.0065000000 0.0065000000 0.0065000000 0.0065000000 0.0065000000 0.0065000000 0.0065000000 0.0065000000 0.0065000000 0.0065000000 0.0065000000 0.0065000000 0.0065000000 0.0065000000 0.0065000000 0.0065000000 0.0065000000 0.0065000000 0.0065000000 0.0065000000 0.0065000000 0.0065000000 0.0065000000 0.0065000000 0.0065000000 0.0065000000 0.0065000000 0.0065000000 0.0065000000 0.0065000000 0.0065000000 0.0065000000 0.0065000000 0.0065000000 0.0065000000 0.0065000000 0.0065000000 0.0065000000 0.0065000000 0.0065000000 0.0065000000 0.0065000000 0.0065000000 0.0065000000 0.0065000000 0.0065000000 0.0065000000 0.0065000000 0.0065000000 0.0065000000 0.0065000000 0.0065000000 0.0065000000 0.0065000000 0.0065000000 0.0065000000 0.0065000000 0.0065000000 0.0065000000 0.0065000000 0.0065000000 0.0065000000 0.0065000000 0.0065000000 0.0065000000 0.0065000000 0.0065000000 0.0065000000 0.0065000000 0.0065000000 0.0065000000 0.0065000000 0.0065000000 0.0065000000 0.0065000000 0.0065000000 0.0065000000 0.0065000000 0.0065000000 0.0065000000 0.0065000000 0.0065000000 0.0065000000 0.0065000000 0.0065000000 0.0065000000 0.0065000000 0.0065000000 0.0065000000 0.0065000000 0.0065000000 0.0065000000 0.0065000000 0.0065000000 0.0065000000 0.0065000000 0.0065000000 0.0065000000 0.0065000000 0.0065000000 0.0065000000 0.0065000000 0.0065000000 0.0065000000 0.0065000000 0.0065000000 0.0065000000 0.0065000000 0.0065000000 0.0065000000 0.0065000000 0.0065000000 0.0065000000 0.0065000000 0.0065000000 0.0065000000 0.0065000000 0.0065000000 0.0065000000 0.0065000000 0.0065000000 0.0065000000 0.0065000000 0.0065000000 0.0065000000 0.0065000000 0.0065000000 0.0065000000 0.0065000000 0.0065000000 0.0065000000 0.0065000000 0.0065000000 0.0065000000 0.0065000000 0.0065000000 0.0065000000 0.0065000000 0.0065000000 0.0065000000 0.0065000000 0.0065000000 0.0065000000 0.0065000000 0.0065000000 0.0065000000 0.0065000000 0.0065000000 0.0065000000 0.0065000000 0.0065000000 0.0065000000 0.0065000000 0.0065000000 0.0065000000 0.0065000000 0.0065000000 0.0065000000 0.0065000000 0.0065000000 0.0065000000 0.0065000000 0.0065000000 0.0065000000 0.0065000000 0.0065000000 0.0065000000 0.0065000000 0.0065000000 0.0065000000 0.0065000000 0.0065000000 0.0065000000 0.0065000000 0.0065000000 0.0065000000 0.0065000000 0.0065000000 0.0065000000 0.0065000000 0.0065000000 0.0065000000 0.0065000000 0.0065000000 0.0065000000 0.0065000000 0.0065000000 0.0065000000 0.0065000000 0.0065000000 0.0065000000 0.0065000000 0.0065000000 0.0065000000 0.0065000000 0.0065000000 0.0065000000 0.0065000000 0.0065000000 0.0065000000 0.0065000000 0.0065000000 0.0065000000 0.0065000000 0.0065000000 0.0065000000 0.0065000000 0.0065000000 0.0065000000 0.0065000000 0.0065000000 0.0065000000 0.0065000000 0.0065000000 0.0065000000 0.0065000000 0.0065000000 0.0065000000 0.0065000000 0.0065000000 0.0065000000 0.0065000000 0.0065000000 0.0065000000 0.0065000000 0.0065000000 0.0065000000 0.0065000000 0.0065000000 0.0065000000 0.0065000000 0.0065000000 0.0065000000 0.0065000000 0.0065000000 0.0065000000 0.0065000000 0.0065000000 0.0065000000 0.0065000000 0.0065000000 0.0065000000 0.0065000000 0.0065000000 0.0065000000 0.0065000000 0.0065000000 0.0065000000 0.0065000000 0.0065000000 0.0065000000 0.0065000000 0.0065000000 0.0065000000 0.0065000000 0.0065000000 0.0065000000 0.0065000000 0.0065000000 0.0065000000 0.0065000000 0.0065000000 0.0065000000 0.0065000000 0.0065000000 0.0065000000 0.0065000000 0.0065000000 0.0065000000 0.0065000000 0.0065000000 0.0065000000 0.0065000000 0.0065000000 0.0065000000 0.0065000000 0.0065000000 0.0065000000 0.0065000000 0.0065000000 0.0065000000 0.0065000000 0.0065000000 0.0065000000 0.0065000000 0.0065000000 0.0065000000 0.0065000000 0.0065000000 0.0065000000 0.0065000000 0.0065000000 0.0065000000 0.0065000000 0.0065000000 0.0065000000 0.0065000000 0.0065000000 0.0065000000 0.0065000000 0.0065000000 0.0065000000 0.0065000000 0.0065000000 0.0065000000 0.0065000000 0.0065000000 0.0065000000 0.0065000000 0.0065000000 0.0065000000 0.0065000000 0.0065000000 0.0065000000 0.0065000000 0.0065000000 0.0065000000 0.0065000000 0.0065000000 0.0065000000 0.0065000000 0.0065000000 0.0065000000 0.0065000000 0.0065000000 0.0065000000 0.0065000000 0.0065000000 0.0065000000 0.0065000000 0.0065000000 0.0065000000 0.0065000000 0.0065000000 0.0065000000 0.0065000000 0.0065000000 0.0065000000 0.0065000000 0.0065000000 0.0065000000 0.0065000000 0.0065000000 0.0065000000 0.0065000000 0.0065000000 0.0065000000 0.0065000000 0.0065000000 0.0065000000 0.0065000000 0.0065000000 0.0065000000 0.0065000000 0.0065000000 0.0065000000 0.0065000000 0.0065000000 0.0065000000 0.0065000000 0.0065000000 0.0065000000 0.0065000000 0.0065000000 0.0065000000 0.0065000000 0.0065000000 0.0065000000 0.0065000000 0.0065000000 0.0065000000 0.0065000000 0.0065000000 0.0065000000 0.0065000000 0.0065000000 0.0065000000 0.0065000000 0.0065000000 0.0065000000 0.0065000000 0.0065000000 0.0065000000 0.0065000000 0.0065000000 0.0065000000 0.0065000000 0.0065000000 0.0065000000 0.0065000000 0.0065000000 0.0065000000 0.0065000000 0.0065000000 0.0065000000 0.0065000000 0.0065000000 0.0065000000 0.0065000000 0.0065000000 0.0065000000 0.0065000000 0.0065000000 0.0065000000 0.0065000000 0.0065000000 0.0065000000 0.0065000000 0.0065000000 0.0065000000 0.0065000000 0.0065000000 0.0065000000 0.0065000000 0.0065000000 0.0065000000 0.0065000000 0.0065000000 0.0065000000 0.0065000000 0.0065000000 0.0065000000 0.0065000000 0.0065000000 0.0065000000 0.0065000000 0.0065000000 0.0065000000 0.0065000000 0.0065000000 0.0065000000 0.0065000000 0.0065000000 0.0065000000 0.0065000000 0.0065000000 0.0065000000 0.0065000000 0.0065000000 0.0065000000 0.0065000000 0.0065000000 0.0065000000 0.0065000000 0.0065000000 0.0065000000 0.0065000000 0.0065000000 0.0065000000 0.0065000000 0.0065000000 0.0065000000 0.0065000000 0.0065000000 0.0065000000 0.0065000000 0.0065000000 0.0065000000 0.0065000000 0.0065000000 0.0065000000 0.0065000000 0.0065000000 0.0065000000 0.0065000000 0.0065000000 0.0065000000 0.0065000000 0.0065000000 0.0065000000 0.0065000000 0.0065000000 0.0065000000 0.0065000000 0.0065000000 0.0065000000 0.0065000000 0.0065000000 0.0065000000 0.0065000000 0.0065000000 0.0065000000 0.0065000000 0.0065000000 0.0065000000 0.0065000000 0.0065000000 0.0065000000 0.0065000000 0.0065000000 0.0065000000 0.0065000000 0.0065000000 0.0065000000 0.0065000000 0.0065000000 0.0065000000 0.0065000000 0.0065000000 0.0065000000 0.0065000000 0.0065000000 0.0065000000 0.0065000000 0.0065000000 0.0065000000 0.0065000000 0.0065000000 0.0065000000 0.0065000000 0.0065000000 0.0065000000 0.0065000000 0.0065000000 0.0065000000 0.0065000000 0.0065000000 0.0065000000 0.0065000000 0.0065000000 0.0065000000 0.0065000000 0.0065000000 0.0065000000 0.0065000000 0.0065000000 0.0065000000 0.0065000000 0.0065000000 0.0065000000 0.0065000000 0.0065000000 0.0065000000 0.0065000000 0.0065000000 0.0065000000 0.0065000000 0.0065000000 0.0065000000 0.0065000000 0.0065000000 0.0065000000 0.0065000000 0.0065000000 0.0065000000 0.0065000000 0.0065000000 0.0065000000 0.0065000000 0.0065000000 0.0065000000 0.0065000000 0.0065000000 0.0065000000 0.0065000000 0.0065000000 0.0065000000 0.0065000000 0.0065000000 0.0065000000 0.0065000000 0.0065000000 0.0065000000 0.0065000000 0.0065000000 0.0065000000 0.0065000000 0.0065000000 0.0065000000 0.0065000000 0.0065000000 0.0065000000 0.0065000000 0.0065000000 0.0065000000 0.0065000000 0.0065000000 0.0065000000 0.0065000000 0.0065000000 0.0065000000 0.0065000000 0.0065000000 0.0065000000 0.0065000000 0.0065000000 0.0065000000 0.0065000000 0.0065000000 0.0065000000 0.0065000000 0.0065000000 0.0065000000 0.0065000000 0.0065000000 0.0065000000 0.0065000000 0.0065000000 0.0065000000 0.0065000000 0.0065000000 0.0065000000 0.0065000000 0.0065000000 0.0065000000 0.0065000000 0.0065000000 0.0065000000 0.0065000000 0.0065000000 0.0065000000 0.0065000000 0.0065000000 0.0065000000 0.0065000000 0.0065000000 0.0065000000 0.0065000000 0.0065000000 0.0065000000 0.0065000000 0.0065000000 0.0065000000 0.0065000000 0.0065000000 0.0065000000 0.0065000000 0.0065000000 0.0065000000 0.0065000000 0.0065000000 0.0065000000 0.0065000000 0.0065000000 0.0065000000 0.0065000000 0.0065000000 0.0065000000 0.0065000000 0.0065000000 0.0065000000 0.0065000000 0.0065000000 0.0065000000 0.0065000000 0.0065000000 0.0065000000 0.0065000000 0.0065000000 0.0065000000 0.0065000000 0.0065000000 0.0065000000 0.0065000000 0.0065000000 0.0065000000 0.0065000000 0.0065000000 0.0065000000 0.0065000000 0.0065000000 0.0065000000 0.0065000000 0.0065000000 0.0065000000 0.0065000000 0.0065000000 0.0065000000 0.0065000000 0.0065000000 0.0065000000 0.0065000000 0.0065000000 0.0065000000 0.0065000000 0.0065000000 0.0065000000 0.0065000000 0.0065000000 0.0065000000 0.0065000000 0.0065000000 0.0065000000 0.0065000000 0.0065000000 0.0065000000 0.0065000000 0.0065000000 0.0065000000 0.0065000000 0.0065000000 0.0065000000 0.0065000000 0.0065000000 0.0065000000 0.0065000000 0.0065000000 0.0065000000 0.0065000000 0.0065000000 0.0065000000 0.0065000000 0.0065000000 0.0065000000 0.0065000000 0.0065000000 0.0065000000 0.0065000000 0.0065000000 0.0065000000 0.0065000000 0.0065000000 0.0065000000 0.0065000000 0.0065000000 0.0065000000 0.0065000000 0.0065000000 0.0065000000 0.0065000000 0.0065000000 0.0065000000 0.0065000000 0.0065000000 0.0065000000 0.0065000000 0.0065000000 0.0065000000 0.0065000000 0.0065000000 0.0065000000 0.0065000000 0.0065000000 0.0065000000 0.0065000000 0.0065000000 0.0065000000 0.0065000000 0.0065000000 0.0065000000 0.0065000000 0.0065000000 0.0065000000 0.0065000000 0.0065000000 0.0065000000 0.0065000000 0.0065000000 0.0065000000 0.0065000000 0.0065000000 0.0065000000 0.0065000000 0.0065000000 0.0065000000 0.0065000000 0.0065000000 0.0065000000 0.0065000000 0.0065000000 0.0065000000 0.0065000000 0.0065000000 0.0065000000 0.0065000000 0.0065000000 0.0065000000 0.0065000000 0.0065000000 0.0065000000 0.0065000000 0.0065000000 0.0065000000 0.0065000000 0.0065000000 0.0065000000 0.0065000000 0.0065000000 0.0065000000 0.0065000000 0.0065000000 0.0065000000 0.0065000000 0.0065000000 0.0065000000 0.0065000000 0.0065000000 0.0065000000 0.0065000000 0.0065000000 0.0065000000 0.0065000000 0.0065000000 0.0065000000 0.0065000000 0.0065000000 0.0065000000 0.0065000000 0.0065000000 0.0065000000 0.0065000000 0.0065000000 0.0065000000 0.0065000000 0.0065000000 0.0065000000 0.0065000000 0.0065000000 0.0065000000 0.0065000000 0.0065000000 0.0065000000 0.0065000000 0.0065000000 0.0065000000 0.0065000000 0.0065000000 0.0065000000 0.0065000000 0.0065000000 0.0065000000 0.0065000000 0.0065000000 0.0065000000 0.0065000000 0.0065000000 0.0065000000 0.0065000000 0.0065000000 0.0065000000 0.0065000000 0.0065000000 0.0065000000 0.0065000000 0.0065000000 0.0065000000 0.0065000000 0.0065000000 0.0065000000 0.0065000000 0.0065000000 0.0065000000 0.0065000000 0.0065000000 0.0065000000 0.0065000000 0.0065000000 0.0065000000 0.0065000000 0.0065000000 0.0065000000 0.0065000000 0.0065000000 0.0065000000 0.0065000000 0.0065000000 0.0065000000 0.0065000000 0.0065000000 0.0065000000 0.0065000000 0.0065000000 0.0065000000 0.0065000000 0.0065000000 0.0065000000 0.0065000000 0.0065000000 0.0065000000 0.0065000000 0.0065000000 0.0065000000 0.0065000000 0.0065000000 0.0065000000 0.0065000000 0.0065000000 0.0065000000 0.0065000000 0.0065000000 0.0065000000 0.0065000000 0.0065000000 0.0065000000 0.0065000000 0.0065000000 0.0065000000 0.0065000000 0.0065000000 0.0065000000 0.0065000000 0.0065000000 0.0065000000 0.0065000000 0.0065000000 0.0065000000 0.0065000000 0.0065000000 0.0065000000 0.0065000000 0.0065000000 0.0065000000 0.0065000000 0.0065000000 0.0065000000 0.0065000000 0.0065000000 0.0065000000 0.0065000000 0.0065000000 0.0065000000 0.0065000000 0.0065000000 0.0065000000 0.0065000000 0.0065000000 0.0065000000 0.0065000000 0.0065000000 0.0065000000 0.0065000000 0.0065000000 0.0065000000 0.0065000000 0.0065000000 0.0065000000 0.0065000000 0.0065000000 0.0065000000 0.0065000000 0.0065000000 0.0065000000 0.0065000000 0.0065000000 0.0065000000 0.0065000000 0.0065000000 0.0065000000 0.0065000000 0.0065000000 0.0065000000 0.0065000000 0.0065000000 0.0065000000 0.0065000000 0.0065000000 0.0065000000 0.0065000000 0.0065000000 0.0065000000 0.0065000000 0.0065000000 0.0065000000 0.0065000000 0.0065000000 0.0065000000 0.0065000000 0.0065000000 0.0065000000 0.0065000000 0.0065000000 0.0065000000 0.0065000000 0.0065000000 0.0065000000 0.0065000000 0.0065000000 0.0065000000 0.0065000000 0.0065000000 0.0065000000 0.0065000000 0.0065000000 0.0065000000 0.0065000000 0.0065000000 0.0065000000 0.0065000000 0.0065000000 0.0065000000 0.0065000000 0.0065000000 0.0065000000 0.0065000000 0.0065000000 0.0065000000 0.0065000000 0.0065000000 0.0065000000 0.0065000000 0.0065000000 0.0065000000 0.0065000000 0.0065000000 0.0065000000 0.0065000000 0.0065000000 0.0065000000 0.0065000000 0.0065000000 0.0065000000 0.0065000000 0.0065000000 0.0065000000 0.0065000000 0.0065000000 0.0065000000 0.0065000000 0.0065000000 0.0065000000 0.0065000000 0.0065000000 0.0065000000 0.0065000000 0.0065000000 0.0065000000 0.0065000000 0.0065000000 0.0065000000 0.0065000000 0.0065000000 0.0065000000 0.0065000000 0.0065000000 0.0065000000 0.0065000000 0.0065000000 0.0065000000 0.0065000000 0.0065000000 0.0065000000 0.0065000000 0.0065000000 0.0065000000 0.0065000000 0.0065000000 0.0065000000 0.0065000000 0.0065000000 0.0065000000 0.0065000000 0.0065000000 0.0065000000 0.0065000000 0.0065000000 0.0065000000 0.0065000000 0.0065000000 0.0065000000 0.0065000000 0.0065000000 0.0065000000 0.0065000000 0.0065000000 0.0065000000 0.0065000000 0.0065000000 0.0065000000 0.0065000000 0.0065000000 0.0065000000 0.0065000000 0.0065000000 0.0065000000 0.0065000000 0.0065000000 0.0065000000 0.0065000000 0.0065000000 0.0065000000 0.0065000000 0.0065000000 0.0065000000 0.0065000000 0.0065000000 0.0065000000 0.0065000000 0.0065000000 0.0065000000 0.0065000000 0.0065000000 0.0065000000 0.0065000000 0.0065000000 0.0065000000 0.0065000000 0.0065000000 0.0065000000 0.0065000000 0.0065000000 0.0065000000 0.0065000000 0.0065000000 0.0065000000 0.0065000000 0.0065000000 0.0065000000 0.0065000000 0.0065000000 0.0065000000 0.0065000000 0.0065000000 0.0065000000 0.0065000000 0.0065000000 0.0065000000 0.0065000000 0.0065000000 0.0065000000 0.0065000000 0.0065000000 0.0065000000 0.0065000000 0.0065000000 0.0065000000 0.0065000000 0.0065000000 0.0065000000 0.0065000000 0.0065000000 0.0065000000 0.0065000000 0.0065000000 0.0065000000 0.0065000000 0.0065000000 0.0065000000 0.0065000000 0.0065000000 0.0065000000 0.0065000000 0.0065000000 0.0065000000 0.0065000000 0.0065000000 0.0065000000 0.0065000000 0.0065000000 0.0065000000 0.0065000000 0.0065000000 0.0065000000 0.0065000000 0.0065000000 0.0065000000 0.0065000000 0.0065000000 0.0065000000 0.0065000000 0.0065000000 0.0065000000 0.0065000000 0.0065000000 0.0065000000 0.0065000000 0.0065000000 0.0065000000 0.0065000000 0.0065000000 0.0065000000 0.0065000000 0.0065000000 0.0065000000 0.0065000000 0.0065000000 0.0065000000 0.0065000000 0.0065000000 0.0065000000 0.0065000000 0.0065000000 0.0065000000 0.0065000000 0.0065000000 0.0065000000 0.0065000000 0.0065000000 0.0065000000 0.0065000000 0.0065000000 0.0065000000 0.0065000000 0.0065000000 0.0065000000 0.0065000000 0.0065000000 0.0065000000 0.0065000000 0.0065000000 0.0065000000 0.0065000000 0.0065000000 0.0065000000 0.0065000000 0.0065000000 0.0065000000 0.0065000000 0.0065000000 0.0065000000 0.0065000000 0.0065000000 0.0065000000 0.0065000000 0.0065000000 0.0065000000 0.0065000000 0.0065000000 0.0065000000 0.0065000000 0.0065000000 0.0065000000 0.0065000000 0.0065000000 0.0065000000 0.0065000000 0.0065000000 0.0065000000 0.0065000000 0.0065000000 0.0065000000 0.0065000000 0.0065000000 0.0065000000 0.0065000000 0.0065000000 0.0065000000 0.0065000000 0.0065000000 0.0065000000 0.0065000000 0.0065000000 0.0065000000 0.0065000000 0.0065000000 0.0065000000 0.0065000000 0.0065000000 0.0065000000 0.0065000000 0.0065000000 0.0065000000 0.0065000000 0.0065000000 0.0065000000 0.0065000000 0.0065000000 0.0065000000 0.0065000000 0.0065000000 0.0065000000 0.0065000000 0.0065000000 0.0065000000 0.0065000000 0.0065000000 0.0065000000 0.0065000000 0.0065000000 0.0065000000 0.0065000000 0.0065000000 0.0065000000 0.0065000000 0.0065000000 0.0065000000 0.0065000000 0.0065000000 0.0065000000 0.0065000000 0.0065000000 0.0065000000 0.0065000000 0.0065000000 0.0065000000 0.0065000000 0.0065000000 0.0065000000 0.0065000000 0.0065000000 0.0065000000 0.0065000000 0.0065000000 0.0065000000 0.0065000000 0.0065000000 0.0065000000 0.0065000000 0.0065000000 0.0065000000 0.0065000000 0.0065000000 0.0065000000 0.0065000000 0.0065000000 0.0065000000 0.0065000000 0.0065000000 0.0065000000 0.0065000000 0.0065000000 0.0065000000 0.0065000000 0.0065000000 0.0065000000 0.0065000000 0.0065000000 0.0065000000 0.0065000000 0.0065000000 0.0065000000 0.0065000000 0.0065000000 0.0065000000 0.0065000000 0.0065000000 0.0065000000 0.0065000000 0.0065000000 0.0065000000 0.0065000000 0.0065000000 0.0065000000 0.0065000000 0.0065000000 0.0065000000 0.0065000000 0.0065000000 0.0065000000 0.0065000000 0.0065000000 0.0065000000 0.0065000000 0.0065000000 0.0065000000 0.006500000