<?xml version="1.0"?>
<VTKFile type="UnstructuredGrid" version="0.1" byte_order="LittleEndian">
  <UnstructuredGrid>
    <FieldData>
      <DataArray type="Float32" Name="TIME"  NumberOfTuples="1" format="ascii"> 3.3476942488 </DataArray>
      <DataArray type="Int32"   Name="STEP"  NumberOfTuples="1" format="ascii"> 44890 </DataArray>
    </FieldData>
    <Piece NumberOfPoints="18081" NumberOfCells="18081">
      <Points>
        <DataArray type="Float32" NumberOfComponents="3" format="ascii">
 0.0708756249 0.0898655563 0.0185954863 0.0166081660 0.0942410277 0.0062096652 0.0845143051 0.0500814723 0.0102283922 0.0342752880 0.0047509114 0.0148225697 0.0631435903 0.0251716813 0.0135656986 0.0033315973 0.0134975859 0.0149536886 0.4707371377 0.0095178838 0.0097654843 0.3937449876 0.0384854962 0.0046143497 0.4998203913 0.0058318471 0.0024029591 0.4034442141 0.0324006088 0.0087092304 0.4214316245 0.0187049523 0.0153675044 0.4985603757 0.0440422820 0.0095435433 0.4782976111 0.0079514870 0.0176906584 0.3303405187 0.0207045349 0.0189066271 0.4535954068 0.0463445360 0.0168216841 0.3741203318 0.0177933732 0.0239065208 0.4987711545 0.0266593033 0.0151514714 0.2686515018 0.0853465792 0.0244898569 0.3416310791 0.0299008495 0.0250256323 0.1582420065 0.0021672542 0.0136574321 0.4522300109 0.0047427875 0.0220204704 0.0937253216 0.1013763437 0.0001825401 0.0173794097 0.0820274807 0.0179774088 0.0615601825 0.0434306523 0.0090488824 0.0615107127 0.0433694892 0.0003531185 0.0145476576 0.0322248490 0.0090641715 0.4137621313 0.0014094780 0.0103627676 0.4898971486 0.0062270683 0.0083540623 0.4318838825 0.0286924062 0.0054858849 0.4762771751 0.0164557172 0.0197618771 0.4872709332 0.0201147108 0.0006718478 0.3706355969 0.0653586498 0.0163739818 0.4892482918 0.0250870091 0.0175412667 0.3719465049 0.0603957190 0.0128095949 0.4889086673 0.0291471943 0.0099671069 0.3157743752 0.0284554350 0.0185109997 0.4535644379 0.0225882952 0.0062910625 0.3272520988 0.0284148697 0.0235532952 0.0389432234 0.0536704076 0.0264584549 0.0028992968 0.0429106312 0.0225405223 0.3314691100 0.0233613145 0.0107026273 0.2224395135 0.0967579523 0.0234275903 0.0943000806 0.0123941055 0.0139045626 0.0007669485 0.0934890739 0.0008410027 0.0776489007 0.0647067649 0.0011972750 0.1638041085 0.0717707920 0.0174545563 0.3756252434 0.0069893203 0.0010796650 0.3576188188 0.0393912306 0.0080130213 0.4865652927 0.0274684128 0.0008368966 0.4990874204 0.0722625900 0.0067024417 0.4990232383 0.0720526813 0.0170728752 0.4766027315 0.0057054007 0.0002349273 0.2712182153 0.0536993759 0.0251571277 0.3627962635 0.0701074899 0.0043558577 0.4408176909 0.0423165463 0.0201215742 0.4586813536 0.0498642482 0.0136703344 0.4098561980 0.0358863588 0.0008720266 0.4274903690 0.0629927993 0.0006820027 0.3792250079 0.0114197942 0.0181257786 0.0309115444 0.0784177481 0.0136689566 0.3597063019 0.0546612909 0.0219767219 0.4893957714 0.0636941765 0.0145132157 0.3636888869 0.0474565147 0.0135273005 0.0732669131 0.0520962971 0.0007742184 0.0523875636 0.0084377036 0.0115962870 0.0798035974 0.0676289493 0.0108653695 0.0624894283 0.0361671860 0.0087284904 0.3837200453 0.0126972115 0.0042140643 0.4386242978 0.0175489933 0.0008042779 0.4574906919 0.0133470256 0.0007914783 0.2897473500 0.0207646674 0.0188890512 0.2653459976 0.0020228021 0.0193930735 0.4820856840 0.0565238536 0.0017458921 0.3538327568 0.0765839446 0.0180217458 0.3177542585 0.0652687068 0.0079987528 0.4265581647 0.0206396050 0.0091140223 0.3804388732 0.0091975349 0.0046951761 0.2531571743 0.0442803385 0.0069253277 0.2921165246 0.0333444904 0.0218767173 0.2323404247 0.0156489734 0.0241327956 0.0380303222 0.0818042672 0.0149535255 0.0682766782 0.0997065159 0.0060520788 0.0252465169 0.0608335608 0.0268078625 0.4439336181 0.0877610897 0.0114257116 0.1354063424 0.0269052016 0.0093793974 0.1588536807 0.0141002637 0.0032325365 0.0395606508 0.0643164681 0.0067718499 0.3052062605 0.0005300555 0.0094459648 0.3643396140 0.0237711088 0.0001708004 0.4059112131 0.0012790061 0.0143304797 0.4564453865 0.0433766875 0.0061377248 0.4141519729 0.0165609846 0.0044949507 0.4011425601 0.0103000965 0.0038736435 0.3636072186 0.0270761234 0.0049601948 0.4671284773 0.0706867091 0.0012285989 0.3166061817 0.0764815414 0.0145489498 0.2822817998 0.0490431633 0.0156086548 0.3913166989 0.0689920262 0.0005441935 0.2030250034 0.0345451997 0.0169548712 0.3014303832 0.0574580078 0.0235055319 0.4218675041 0.0055880056 0.0219917052 0.2980647117 0.0360576538 0.0240918682 0.2433021158 0.0634635084 0.0219128002 0.3577156170 0.0050606446 0.0164875172 0.2637130297 0.0563751863 0.0247181766 0.1195802032 0.0197963155 0.0143324677 0.0657914510 0.0419223795 0.0064242908 0.0735247706 0.0616606175 0.0006536879 0.0049839496 0.0694446203 0.0065326654 0.4295866330 0.0070227283 0.0006123128 0.4760458747 0.0382326766 0.0006505702 0.3166297603 0.0506972665 0.0053839741 0.3130986685 0.0225921683 0.0166110727 0.1727557558 0.0250655437 0.0232091856 0.3861466976 0.0517488949 0.0006452802 0.3663692385 0.0443474735 0.0040615760 0.3260949765 0.0558076328 0.0041678069 0.3175861598 0.0678651523 0.0135541036 0.2478189345 0.0835608269 0.0232694560 0.3287873684 0.0441245732 0.0154414732 0.3074454982 0.0622046647 0.0152723293 0.2356839405 0.0080448924 0.0176231577 0.0883118523 0.0657848173 0.0133353354 0.3224678738 0.0039131020 0.0015958577 0.3083866176 0.0140682271 0.0245070278 0.4630053851 0.0606008187 0.0141512775 0.1338164869 0.0319309871 0.0004006474 0.1602001507 0.0041412751 0.0076165586 0.0599231645 0.0507399555 0.0007012732 0.3558887704 0.0285290171 0.0006517034 0.3772237303 0.0150778813 0.0033260968 0.4271835112 0.0010644064 0.0003589979 0.3026697562 0.0397118964 0.0021976644 0.4467702304 0.0513542193 0.0008469582 0.3196687193 0.0247943391 0.0043127830 0.3369976573 0.0373830577 0.0004636274 0.3389216436 0.0602101164 0.0045754255 0.3783092678 0.0600650565 0.0042448015 0.2326995876 0.0541098140 0.0173429234 0.4214784590 0.0736124064 0.0055500069 0.2630325253 0.0257024983 0.0036560014 0.3927152559 0.0568998956 0.0162754568 0.0084743587 0.0802829476 0.0132158044 0.0942026064 0.0257551190 0.0144277167 0.0398415772 0.0381984667 0.0221772374 0.0248394850 0.0941330326 0.0144277124 0.2319075955 0.1227873964 0.0232755447 0.1147396508 0.0098626576 0.0147380683 0.0648998122 0.0153148517 0.0046829588 0.0924675107 0.0135527555 0.0009271115 0.3627467304 0.0116999285 0.0008872651 0.3365979588 0.0228131367 0.0094118931 0.3740112036 0.0005650450 0.0117350343 0.3819729904 0.0469525135 0.0001849788 0.0808027139 0.0240189538 0.0366249054 0.4073041231 0.0530518745 0.0005918764 0.3311399991 0.0434245100 0.0008759518 0.4019428076 0.0877169604 0.0003034300 0.3945322869 0.0474688648 0.0142182721 0.2414083475 0.0596728888 0.0076173700 0.3095284986 0.0278576707 0.0184267876 0.2614453540 0.0404625306 0.0119871906 0.1858506109 0.0257646295 0.0236532016 0.1640736762 0.0616513509 0.0234331954 0.0390517470 0.0766330417 0.0161519695 0.2579463920 0.0087137486 0.0086497231 0.1588190752 0.0432463117 0.0227377918 0.0498489676 0.0503808752 0.0312604452 0.0564618884 0.0120789448 0.0093120407 0.1735419737 0.0282341989 0.0039702820 0.1059012367 0.0089914679 0.0002745256 0.3466165529 0.0014325300 0.0122978776 0.4264351677 0.0003061474 0.0100253890 0.4241603316 0.0000013305 0.0046132335 0.3621242728 0.0073404326 0.0048018936 0.2842281703 0.0237362059 0.0002295565 0.0262917710 0.0122477444 0.0091455656 0.0180451479 0.0667935791 0.0005924329 0.3236762168 0.0642761052 0.0101152696 0.4256938221 0.0922349764 0.0001574151 0.3382701051 0.0627581511 0.0001233550 0.3479617640 0.0651246976 0.0106087199 0.3557001892 0.0647108819 0.0197658497 0.4180919651 0.0877194495 0.0130958439 0.3810385706 0.0773181739 0.0215448205 0.0166538235 0.0626521026 0.0054431529 0.0282201341 0.0323205044 0.0205108294 0.4289868031 0.0385760950 0.0044915170 0.0550602192 0.0474367537 0.0202186871 0.1454450280 0.0305751762 0.0124516876 0.1441936667 0.0468688326 0.0099171544 0.1535718618 0.0366397968 0.0001506557 0.3630738580 0.0003245463 0.0037591865 0.3713118609 0.0154213222 0.0051630386 0.3873256796 0.0113696758 0.0002782399 0.3728288439 0.0314361770 0.0009220950 0.3658681079 0.0519560164 0.0005423828 0.3683931399 0.0213818998 0.0030242724 0.2829755132 0.0086645901 0.0001533512 0.3811322017 0.0693869348 0.0003677704 0.4073232769 0.0301516012 0.0137534202 0.3158229572 0.0419506707 0.0131008860 0.4223238176 0.0275073071 0.0003099505 0.2329884129 0.0893779546 0.0182353021 0.2158621454 0.0004694954 0.0001739900 0.2552469489 0.0676346767 0.0235149732 0.0951583855 0.0994376316 0.0365229343 0.3573139596 0.0592545650 0.0134489988 0.0094572598 0.0303787013 0.0283243372 0.4175434013 0.0519138244 0.0153261322 0.1391136149 0.0313035475 0.0005548028 0.1015905632 0.0270886276 0.0006736509 0.0558546968 0.0422300237 0.0016718829 0.3054394772 0.0329822455 0.0053792252 0.2567818393 0.0218022247 0.0115769922 0.3745359802 0.0057782001 0.0084809226 0.2926861094 0.0436703624 0.0003302438 0.4070570573 0.0872179532 0.0007726686 0.0600246392 0.0515932615 0.0136962841 0.3582233181 0.0181654327 0.0003731961 0.4493530445 0.0765943526 0.0008645313 0.4890568209 0.0837252690 0.0004272558 0.2553935074 0.0643456517 0.0010451780 0.4737330758 0.0684789959 0.0096668465 0.2920697725 0.0576371726 0.0132664396 0.1932071046 0.0643217464 0.0099137478 0.1649177168 0.0670451992 0.0214917886 0.0451374399 0.0292842065 0.0034099183 0.2091692440 0.0605766402 0.0041618213 0.3011320142 0.1070888054 0.0179925489 0.4318759331 0.0630379401 0.0134604691 0.1383025621 0.0344719730 0.0092341701 0.1436005744 0.0531468286 0.0100577790 0.1629075127 0.0114552749 0.0004282010 0.3142526031 0.0052499504 0.0089516606 0.0390312666 0.0550271980 0.0141856637 0.2836604066 0.0312230569 0.0052620618 0.3263194002 0.0424797580 0.0008569539 0.2760066560 0.0241865165 0.0041786201 0.4322974256 0.0671653736 0.0017955352 0.2717399004 0.0455358179 0.0043208189 0.4181236260 0.0394146707 0.0103057481 0.4248689206 0.0777078122 0.0131717569 0.3846564034 0.0327758
[...]
      <PointData Scalars="smoothLength">
        <DataArray type="Float32" Name="smoothLength" format="ascii">
 0.0065000000 0.0065000000 0.0065000000 0.0065000000 0.0065000000 0.0065000000 0.0065000000 0.0065000000 0.0065000000 0.0065000000 0.0065000000 0.0065000000 0.0065000000 0.0065000000 0.0065000000 0.0065000000 0.0065000000 0.0065000000 0.0065000000 0.0065000000 0.0065000000 0.0065000000 0.0065000000 0.0065000000 0.0065000000 0.0065000000 0.0065000000 0.0065000000 0.0065000000 0.0065000000 0.0065000000 0.0065000000 0.0065000000 0.0065000000 0.0065000000 0.0065000000 0.0065000000 0.0065000000 0.0065000000 0.0065000000 0.0065000000 0.0065000000 0.0065000000 0.0065000000 0.0065000000 0.0065000000 0.0065000000 0.0065000000 0.0065000000 0.0065000000 0.0065000000 0.0065000000 0.0065000000 0.0065000000 0.0065000000 0.0065000000 0.0065000000 0.0065000000 0.0065000000 0.0065000000 0.0065000000 0.0065000000 0.0065000000 0.0065000000 0.0065000000 0.0065000000 0.0065000000 0.0065000000 0.0065000000 0.0065000000 0.0065000000 0.0065000000 0.0065000000 0.0065000000 0.0065000000 0.0065000000 0.0065000000 0.0065000000 0.0065000000 0.0065000000 0.0065000000 0.0065000000 0.0065000000 0.0065000000 0.0065000000 0.0065000000 0.0065000000 0.0065000000 0.0065000000 0.0065000000 0.0065000000 0.0065000000 0.0065000000 0.0065000000 0.0065000000 0.0065000000 0.0065000000 0.0065000000 0.0065000000 0.0065000000 0.0065000000 0.0065000000 0.0065000000 0.0065000000 0.0065000000 0.0065000000 0.0065000000 0.0065000000 0.0065000000 0.0065000000 0.0065000000 0.0065000000 0.0065000000 0.0065000000 0.0065000000 0.0065000000 0.0065000000 0.0065000000 0.0065000000 0.0065000000 0.0065000000 0.0065000000 0.0065000000 0.0065000000 0.0065000000 0.0065000000 0.0065000000 0.0065000000 0.0065000000 0.0065000000 0.0065000000 0.0065000000 0.0065000000 0.0065000000 0.0065000000 0.0065000000 0.0065000000 0.0065000000 0.0065000000 0.0065000000 0.0065000000 0.0065000000 0.0065000000 0.0065000000 0.0065000000 0.0065000000 0.0065000000 0.0065000000 0.0065000000 0.0065000000 0.0065000000 0.0065000000 0.0065000000 0.0065000000 0.0065000000 0.0065000000 0.0065000000 0.0065000000 0.0065000000 0.0065000000 0.0065000000 0.0065000000 0.0065000000 0.0065000000 0.0065000000 0.0065000000 0.0065000000 0.0065000000 0.0065000000 0.0065000000 0.0065000000 0.0065000000 0.0065000000 0.0065000000 0.0065000000 0.0065000000 0.0065000000 0.0065000000 0.0065000000 0.0065000000 0.0065000000 0.0065000000 0.0065000000 0.0065000000 0.0065000000 0.0065000000 0.0065000000 0.0065000000 0.0065000000 0.0065000000 0.0065000000 0.0065000000 0.0065000000 0.0065000000 0.0065000000 0.0065000000 0.0065000000 0.0065000000 0.0065000000 0.0065000000 0.0065000000 0.0065000000 0.0065000000 0.0065000000 0.0065000000 0.0065000000 0.0065000000 0.0065000000 0.0065000000 0.0065000000 0.0065000000 0.0065000000 0.0065000000 0.0065000000 0.0065000000 0.0065000000 0.0065000000 0.0065000000 0.0065000000 0.0065000000 0.0065000000 0.0065000000 0.0065000000 0.0065000000 0.0065000000 0.0065000000 0.0065000000 0.0065000000 0.0065000000 0.0065000000 0.0065000000 0.0065000000 0.0065000000 0.0065000000 0.0065000000 0.0065000000 0.0065000000 0.0065000000 0.0065000000 0.0065000000 0.0065000000 0.0065000000 0.0065000000 0.0065000000 0.0065000000 0.0065000000 0.0065000000 0.0065000000 0.0065000000 0.0065000000 0.0065000000 0.0065000000 0.0065000000 0.0065000000 0.0065000000 0.0065000000 0.0065000000 0.0065000000 0.0065000000 0.0065000000 0.0065000000 0.0065000000 0.0065000000 0.0065000000 0.0065000000 0.0065000000 0.0065000000 0.0065000000 0.0065000000 0.0065000000 0.0065000000 0.0065000000 0.0065000000 0.0065000000 0.0065000000 0.0065000000 0.0065000000 0.0065000000 0.0065000000 0.0065000000 0.0065000000 0.0065000000 0.0065000000 0.0065000000 0.0065000000 0.0065000000 0.0065000000 0.0065000000 0.0065000000 0.0065000000 0.0065000000 0.0065000000 0.0065000000 0.0065000000 0.0065000000 0.0065000000 0.0065000000 0.0065000000 0.0065000000 0.0065000000 0.0065000000 0.0065000000 0.0065000000 0.0065000000 0.0065000000 0.0065000000 0.0065000000 0.0065000000 0.0065000000 0.0065000000 0.0065000000 0.0065000000 0.0065000000 0.0065000000 0.0065000000 0.0065000000 0.0065000000 0.0065000000 0.0065000000 0.0065000000 0.0065000000 0.0065000000 0.0065000000 0.0065000000 0.0065000000 0.0065000000 0.0065000000 0.0065000000 0.0065000000 0.0065000000 0.0065000000 0.0065000000 0.0065000000 0.0065000000 0.0065000000 0.0065000000 0.0065000000 0.0065000000 0.0065000000 0.0065000000 0.0065000000 0.0065000000 0.0065000000 0.0065000000 0.0065000000 0.0065000000 0.0065000000 0.0065000000 0.0065000000 0.0065000000 0.0065000000 0.0065000000 0.0065000000 0.0065000000 0.0065000000 0.0065000000 0.0065000000 0.0065000000 0.0065000000 0.0065000000 0.0065000000 0.0065000000 0.0065000000 0.0065000000 0.0065000000 0.0065000000 0.0065000000 0.0065000000 0.0065000000 0.0065000000 0.0065000000 0.0065000000 0.0065000000 0.0065000000 0.0065000000 0.0065000000 0.0065000000 0.0065000000 0.0065000000 0.0065000000 0.0065000000 0.0065000000 0.0065000000 0.0065000000 0.0065000000 0.0065000000 0.0065000000 0.0065000000 0.0065000000 0.0065000000 0.0065000000 0.0065000000 0.0065000000 0.0065000000 0.0065000000 0.0065000000 0.0065000000 0.0065000000 0.0065000000 0.0065000000 0.0065000000 0.0065000000 0.0065000000 0.0065000000 0.0065000000 0.0065000000 0.0065000000 0.0065000000 0.0065000000 0.0065000000 0.0065000000 0.0065000000 0.0065000000 0.0065000000 0.0065000000 0.0065000000 0.0065000000 0.0065000000 0.0065000000 0.0065000000 0.0065000000 0.0065000000 0.0065000000 0.0065000000 0.0065000000 0.0065000000 0.0065000000 0.0065000000 0.0065000000 0.0065000000 0.0065000000 0.0065000000 0.0065000000 0.0065000000 0.0065000000 0.0065000000 0.0065000000 0.0065000000 0.0065000000 0.0065000000 0.0065000000 0.0065000000 0.0065000000 0.0065000000 0.0065000000 0.0065000000 0.0065000000 0.0065000000 0.0065000000 0.0065000000 0.0065000000 0.0065000000 0.0065000000 0.0065000000 0.0065000000 0.0065000000 0.0065000000 0.0065000000 0.0065000000 0.0065000000 0.0065000000 0.0065000000 0.0065000000 0.0065000000 0.0065000000 0.0065000000 0.0065000000 0.0065000000 0.0065000000 0.0065000000 0.0065000000 0.0065000000 0.0065000000 0.0065000000 0.0065000000 0.0065000000 0.0065000000 0.0065000000 0.0065000000 0.0065000000 0.0065000000 0.0065000000 0.0065000000 0.0065000000 0.0065000000 0.0065000000 0.0065000000 0.0065000000 0.0065000000 0.0065000000 0.0065000000 0.0065000000 0.0065000000 0.0065000000 0.0065000000 0.0065000000 0.0065000000 0.0065000000 0.0065000000 0.0065000000 0.0065000000 0.0065000000 0.0065000000 0.0065000000 0.0065000000 0.0065000000 0.0065000000 0.0065000000 0.0065000000 0.0065000000 0.0065000000 0.0065000000 0.0065000000 0.0065000000 0.0065000000 0.0065000000 0.0065000000 0.0065000000 0.0065000000 0.0065000000 0.0065000000 0.0065000000 0.0065000000 0.0065000000 0.0065000000 0.0065000000 0.0065000000 0.0065000000 0.0065000000 0.0065000000 0.0065000000 0.0065000000 0.0065000000 0.0065000000 0.0065000000 0.0065000000 0.0065000000 0.0065000000 0.0065000000 0.0065000000 0.0065000000 0.0065000000 0.0065000000 0.0065000000 0.0065000000 0.0065000000 0.0065000000 0.0065000000 0.0065000000 0.0065000000 0.0065000000 0.0065000000 0.0065000000 0.0065000000 0.0065000000 0.0065000000 0.0065000000 0.0065000000 0.0065000000 0.0065000000 0.0065000000 0.0065000000 0.0065000000 0.0065000000 0.0065000000 0.0065000000 0.0065000000 0.0065000000 0.0065000000 0.0065000000 0.0065000000 0.0065000000 0.0065000000 0.0065000000 0.0065000000 0.0065000000 0.0065000000 0.0065000000 0.0065000000 0.0065000000 0.0065000000 0.0065000000 0.0065000000 0.0065000000 0.0065000000 0.0065000000 0.0065000000 0.0065000000 0.0065000000 0.0065000000 0.0065000000 0.0065000000 0.0065000000 0.0065000000 0.0065000000 0.0065000000 0.0065000000 0.0065000000 0.0065000000 0.0065000000 0.0065000000 0.0065000000 0.0065000000 0.0065000000 0.0065000000 0.0065000000 0.0065000000 0.0065000000 0.0065000000 0.0065000000 0.0065000000 0.0065000000 0.0065000000 0.0065000000 0.0065000000 0.0065000000 0.0065000000 0.0065000000 0.0065000000 0.0065000000 0.0065000000 0.0065000000 0.0065000000 0.0065000000 0.0065000000 0.0065000000 0.0065000000 0.0065000000 0.0065000000 0.0065000000 0.0065000000 0.0065000000 0.0065000000 0.0065000000 0.0065000000 0.0065000000 0.0065000000 0.0065000000 0.0065000000 0.0065000000 0.0065000000 0.0065000000 0.0065000000 0.0065000000 0.0065000000 0.0065000000 0.0065000000 0.0065000000 0.0065000000 0.0065000000 0.0065000000 0.0065000000 0.0065000000 0.0065000000 0.0065000000 0.0065000000 0.0065000000 0.0065000000 0.0065000000 0.0065000000 0.0065000000 0.0065000000 0.0065000000 0.0065000000 0.0065000000 0.0065000000 0.0065000000 0.0065000000 0.0065000000 0.0065000000 0.0065000000 0.0065000000 0.0065000000 0.0065000000 0.0065000000 0.0065000000 0.0065000000 0.0065000000 0.0065000000 0.0065000000 0.0065000000 0.0065000000 0.0065000000 0.0065000000 0.0065000000 0.0065000000 0.0065000000 0.0065000000 0.0065000000 0.0065000000 0.0065000000 0.0065000000 0.0065000000 0.0065000000 0.0065000000 0.0065000000 0.0065000000 0.0065000000 0.0065000000 0.0065000000 0.0065000000 0.0065000000 0.0065000000 0.0065000000 0.0065000000 0.0065000000 0.0065000000 0.0065000000 0.0065000000 0.0065000000 0.0065000000 0.0065000000 0.0065000000 0.0065000000 0.0065000000 0.0065000000 0.0065000000 0.0065000000 0.0065000000 0.0065000000 0.0065000000 0.0065000000 0.0065000000 0.0065000000 0.0065000000 0.0065000000 0.0065000000 0.0065000000 0.0065000000 0.0065000000 0.0065000000 0.0065000000 0.0065000000 0.0065000000 0.0065000000 0.0065000000 0.0065000000 0.0065000000 0.0065000000 0.0065000000 0.0065000000 0.0065000000 0.0065000000 0.0065000000 0.0065000000 0.0065000000 0.0065000000 0.0065000000 0.0065000000 0.0065000000 0.0065000000 0.0065000000 0.0065000000 0.0065000000 0.0065000000 0.0065000000 0.0065000000 0.0065000000 0.0065000000 0.0065000000 0.0065000000 0.0065000000 0.0065000000 0.0065000000 0.0065000000 0.0065000000 0.0065000000 0.0065000000 0.0065000000 0.0065000000 0.0065000000 0.0065000000 0.0065000000 0.0065000000 0.0065000000 0.0065000000 0.0065000000 0.0065000000 0.0065000000 0.0065000000 0.0065000000 0.0065000000 0.0065000000 0.0065000000 0.0065000000 0.0065000000 0.0065000000 0.0065000000 0.0065000000 0.0065000000 0.0065000000 0.0065000000 0.0065000000 0.0065000000 0.0065000000 0.0065000000 0.0065000000 0.0065000000 0.0065000000 0.0065000000 0.0065000000 0.0065000000 0.0065000000 0.0065000000 0.0065000000 0.0065000000 0.0065000000 0.0065000000 0.0065000000 0.0065000000 0.0065000000 0.0065000000 0.0065000000 0.0065000000 0.0065000000 0.0065000000 0.0065000000 0.0065000000 0.0065000000 0.0065000000 0.0065000000 0.0065000000 0.0065000000 0.0065000000 0.0065000000 0.0065000000 0.0065000000 0.0065000000 0.0065000000 0.0065000000 0.0065000000 0.0065000000 0.0065000000 0.0065000000 0.0065000000 0.0065000000 0.0065000000 0.0065000000 0.0065000000 0.0065000000 0.0065000000 0.0065000000 0.0065000000 0.0065000000 0.0065000000 0.0065000000 0.0065000000 0.0065000000 0.0065000000 0.0065000000 0.0065000000 0.0065000000 0.0065000000 0.0065000000 0.0065000000 0.0065000000 0.0065000000 0.0065000000 0.0065000000 0.0065000000 0.0065000000 0.0065000000 0.0065000000 0.0065000000 0.0065000000 0.0065000000 0.0065000000 0.0065000000 0.0065000000 0.0065000000 0.0065000000 0.0065000000 0.0065000000 0.0065000000 0.0065000000 0.0065000000 0.0065000000 0.0065000000 0.0065000000 0.0065000000 0.0065000000 0.0065000000 0.0065000000 0.0065000000 0.0065000000 0.0065000000 0.0065000000 0.0065000000 0.0065000000 0.0065000000 0.0065000000 0.0065000000 0.0065000000 0.0065000000 0.0065000000 0.0065000000 0.0065000000 0.0065000000 0.0065000000 0.0065000000 0.0065000000 0.0065000000 0.0065000000 0.0065000000 0.0065000000 0.0065000000 0.0065000000 0.0065000000 0.0065000000 0.0065000000 0.0065000000 0.0065000000 0.0065000000 0.0065000000 0.0065000000 0.0065000000 0.0065000000 0.0065000000 0.0065000000 0.0065000000 0.0065000000 0.0065000000 0.0065000000 0.0065000000 0.0065000000 0.0065000000 0.0065000000 0.0065000000 0.0065000000 0.0065000000 0.0065000000 0.0065000000 0.0065000000 0.0065000000 0.0065000000 0.0065000000 0.0065000000 0.0065000000 0.0065000000 0.0065000000 0.0065000000 0.0065000000 0.0065000000 0.0065000000 0.0065000000 0.0065000000 0.0065000000 0.0065000000 0.0065000000 0.0065000000 0.0065000000 0.0065000000 0.0065000000 0.0065000000 0.0065000000 0.0065000000 0.0065000000 0.0065000000 0.0065000000 0.0065000000 0.0065000000 0.0065000000 0.0065000000 0.0065000000 0.0065000000 0.0065000000 0.0065000000 0.0065000000 0.0065000000 0.0065000000 0.0065000000 0.0065000000 0.0065000000 0.0065000000 0.0065000000 0.0065000000 0.0065000000 0.0065000000 0.0065000000 0.0065000000 0.0065000000 0.0065000000 0.0065000000 0.0065000000 0.0065000000 0.0065000000 0.0065000000 0.0065000000 0.0065000000 0.0065000000 0.0065000000 0.0065000000 0.0065000000 0.0065000000 0.0065000000 0.0065000000 0.0065000000 0.0065000000 0.0065000000 0.0065000000 0.0065000000 0.0065000000 0.0065000000 0.0065000000 0.0065000000 0.0065000000 0.0065000000 0.0065000000 0.0065000000 0.0065000000 0.0065000000 0.0065000000 0.0065000000 0.0065000000 0.0065000000 0.0065000000 0.0065000000 0.0065000000 0.0065000000 0.0065000000 0.0065000000 0.0065000000 0.0065000000 0.0065000000 0.0065000000 0.0065000000 0.0065000000 0.0065000000 0.0065000000 0.0065000000 0.0065000000 0.0065000000 0.0065000000 0.0065000000 0.0065000000 0.0065000000 0.0065000000 0.0065000000 0.0065000000 0.0065000000 0.0065000000 0.0065000000 0.0065000000 0.0065000000 0.0065000000 0.0065000000 0.0065000000 0.0065000000 0.0065000000 0.0065000000 0.0065000000 0.0065000000 0.0065000000 0.0065000000 0.0065000000 0.0065000000 0.0065000000 0.0065000000 0.0065000000 0.0065000000 0.0065000000 0.0065000000 0.0065000000 0.0065000000 0.0065000000 0.0065000000 0.0065000000 0.0065000000 0.0065000000 0.0065000000 0.0065000000 0.0065000000 0.0065000000 0.0065000000 0.0065000000 0.0065000000 0.0065000000 0.0065000000 0.0065000000 0.0065000000 0.0065000000 0.0065000000 0.0065000000 0.0065000000 0.0065000000 0.0065000000 0.0065000000 0.0065000000 0.0065000000 0.0065000000 0.0065000000 0.0065000000 0.0065000000 0.0065000000 0.0065000000 0.0065000000 0.0065000000 0.0065000000 0.0065000000 0.0065000000 0.0065000000 0.0065000000 0.0065000000 0.0065000000 0.0065000000 0.0065000000 0.0065000000 0.0065000000 0.0065000000 0.0065000000 0.0065000000 0.0065000000 0.0065000000 0.0065000000 0.0065000000 0.0065000000 0.0065000000 0.0065000000 0.0065000000 0.0065000000 0.0065000000 0.0065000000 0.0065000000 0.0065000000 0.0065000000 0.0065000000 0.0065000000 0.0065000000 0.0065000000 0.0065000000 0.0065000000 0.0065000000 0.0065000000 0.0065000000 0.0065000000 0.0065000000 0.0065000000 0.0065000000 0.0065000000 0.0065000000 0.0065000000 0.0065000000 0.0065000000 0.0065000000 0.0065000000 0.0065000000 0.0065000000 0.0065000000 0.0065000000 0.0065000000 0.0065000000 0.0065000000 0.0065000000 0.0065000000 0.0065000000 0.0065000000 0.0065000000 0.0065000000 0.0065000000 0.0065000000 0.0065000000 0.0065000000 0.0065000000 0.0065000000 0.0065000000 0.0065000000 0.0065000000 0.0065000000 0.0065000000 0.0065000000 0.0065000000 0.0065000000 0.0065000000 0.0065000000 0.0065000000 0.0065000000 0.0065000000 0.0065000000 0.0065000000 0.0065000000 0.0065000000 0.0065000000 0.0065000000 0.0065000000 0.0065000000 0.0065000000 0.0065000000 0.0065000000 0.0065000000 0.0065000000 0.0065000000 0.0065000000 0.0065000000 0.0065000000 0.0065000000 0.0065000000 0.0065000000 0.0065000000 0.0065000000 0.0065000000 0.0065000000 0.0065000000 0.0065000000 0.0065000000 0.0065000000 0.0065000000 0.0065000000 0.0065000000 0.0065000000 0.0065000000 0.0065000000 0.0065000000 0.0065000000 0.0065000000 0.0065000000 0.0065000000 0.0065000000 0.0065000000 0.0065000000 0.0065000000 0.0065000000 0.0065000000 0.0065000000 0.0065000000 0.0065000000 0.0065000000 0.0065000000 0.0065000000 0.0065000000 0.0065000000 0.0065000000 0.0065000000 0.0065000000 0.0065000000 0.0065000000 0.0065000000 0.0065000000 0.0065000000 0.0065000000 0.0065000000 0.0065000000 0.0065000000 0.0065000000 0.0065000000 0.0065000000 0.0065000000 0.0065000000 0.0065000000 0.0065000000 0.0065000000 0.0065000000 0.0065000000 0.0065000000 0.0065000000 0.0065000000 0.0065000000 0.0065000000 0.0065000000 0.0065000000 0.0065000000 0.0065000000 0.0065000000 0.0065000000 0.0065000000 0.0065000000 0.0065000000 0.0065000000 0.0065000000 0.0065000000 0.0065000000 0.0065000000 0.0065000000 0.0065000000 0.0065000000 0.0065000000 0.0065000000 0.0065000000 0.0065000000 0.0065000000 0.0065000000 0.0065000000 0.0065000000 0.0065000000 0.0065000000 0.0065000000 0.0065000000 0.0065000000 0.0065000000 0.0065000000 0.0065000000 0.0065000000 0.0065000000 0.0065000000 0.0065000000 0.0065000000 0.0065000000 0.0065000000 0.0065000000 0.0065000000 0.0065000000 0.0065000000 0.0065000000 0.0065000000 0.0065000000 0.0065000000 0.0065000000 0.0065000000 0.0065000000 0.0065000000 0.0065000000 0.0065000000 0.0065000000 0.0065000000 0.0065000000 0.0065000000 0.0065000000 0.0065000000 0.0065000000 0.0065000000 0.0065000000 0.0065000000 0.0065000000 0.0065000000 0.0065000000 0.0065000000 0.0065000000 0.0065000000 0.0065000000 0.0065000000 0.0065000000 0.0065000000 0.0065000000 0.0065000000 0.0065000000 0.0065000000 0.0065000000 0.0065000000 0.0065000000 0.0065000000 0.0065000000 0.0065000000 0.0065000000 0.0065000000 0.0065000000 0.0065000000 0.0065000000 0.0065000000 0.0065000000 0.0065000000 0.0065000000 0.0065000000 0.0065000000 0.0065000000 0.0065000000 0.0065000000 0.0065000000 0.0065000000 0.0065000000 0.0065000000 0.0065000000 0.0065000000 0.0065000000 0.0065000000 0.0065000000 0.0065000000 0.0065000000 0.0065000000 0.0065000000 0.0065000000 0.0065000000 0.0065000000 0.0065000000 0.0065000000 0.0065000000 0.0065000000 0.0065000000 0.0065000000 0.0065000000 0.0065000000 0.0065000000 0.0065000000 0.0065000000 0.0065000000 0.0065000000 0.0065000000 0.0065000000 0.0065000000 0.0065000000 0.0065000000 0.0065000000 0.0065000000 0.0065000000 0.0065000000 0.0065000000 0.0065000000 0.0065000000 0.0065000000 0.0065000000 0.0065000000 0.0065000000 0.0065000000 0.0065000000 0.0065000000 0.0065000000 0.0065000000 0.0065000000 0.0065000000 0.0065000000 0.0065000000 0.0065000000 0.0065000000 0.0065000000 0.0065000000 0.0065000000 0.0065000000 0.0065000000 0.0065000000 0.0065000000 0.0065000000 0.0065000000 0.0065000000 0.0065000000 0.0065000000 0.0065000000 0.0065000000 0.0065000000 0.0065000000 0.0065000000 0.0065000000 0.0065000000 0.0065000000 0.0065000000 0.0065000000 0.0065000000 0.0065000000 0.0065000000 0.0065000000 0.0065000000 0.0065000000 0.0065000000 0.0065000000 0.0065000000 0.0065000000 0.0065000000 0.0065000000 0.0065000000 0.0065000000 0.0065000000 0.0065000000 0.0065000000 0.0065000000 0.0065000000 0.0065000000 0.0065000000 0.0065000000 0.0065000000 0.0065000000 0.0065000000 0.0065000000 0.0065000000 0.0065000000 0.0065000000 0.0065000000 0.0065000000 0.0065000000 0.0065000000 0.0065000000 0.0065000000 0.0065000000 0.0065000000 0.0065000000 0.0065000000 0.0065000000 0.0065000000 0.0065000000 0.0065000000 0.0065000000 0.0065000000 0.0065000000 0.0065000000 0.0065000000 0.0065000000 0.0065000000 0.0065000000 0.0065000000 0.0065000000 0.0065000000 0.0065000000 0.0065000000 0.0065000000 0.0065000000 0.0065000000 0.0065000000 0.0065000000 0.0065000000 0.0065000000 0.0065000000 0.0065000000 0.0065000000 0.0065000000 0.0065000000 0.0065000000 0.0065000000 0.0065000000 0.0065000000 0.0065000000 0.0065000000 0.0065000000 0.0065000000 0.0065000000 0.0065000000 0.0065000000 0.0065000000 0.0065000000 0.0065000000 0.0065000000 0.0065000000 0.0065000000 0.0065000000 0.0065000000 0.0065000000 0.0065000000 0.0065000000 0.0065000000 0.0065000000 0.0065000000 0.0065000000 0.0065000000 0.0065000000 0.006500000