<?xml version="1.0"?>
<VTKFile type="UnstructuredGrid" version="0.1" byte_order="LittleEndian">
  <UnstructuredGrid>
    <FieldData>
      <DataArray type="Float32" Name="TIME"  NumberOfTuples="1" format="ascii"> 2.1485201895 </DataArray>
      <DataArray type="Int32"   Name="STEP"  NumberOfTuples="1" format="ascii"> 28810 </DataArray>
    </FieldData>
    <Piece NumberOfPoints="18081" NumberOfCells="18081">
      <Points>
        <DataArray type="Float32" NumberOfComponents="3" format="ascii">
 0.1191987079 0.0254890068 -0.0000034254 0.1195599989 0.0050021781 0.0055001493 0.0853518004 0.0018796991 0.0087891684 0.2411164684 0.0105061249 0.0094404195 0.2090157587 0.0127407191 0.0195242366 0.1503322038 0.0008365856 0.0001009531 0.3083197686 0.0047620777 -0.0000090453 0.3548028659 0.0163993275 0.0017782545 0.4505332435 0.0026250802 0.0242745900 0.2026048666 0.0017059749 0.0227009432 0.2393116154 0.0187794878 0.0102333048 0.4856443259 0.0743296995 0.0426867806 0.4511712573 0.0184404405 -0.0005517485 0.4609320293 0.0729841193 0.0229984336 0.4127654336 0.0250989390 0.0131796432 0.4276084189 0.0373930779 0.0007527136 0.3857921641 0.0018600920 0.0075849136 0.3485952687 0.0306517342 0.0087338151 0.1863324595 0.0154586634 0.0256462385 0.4848121852 0.0048901445 0.0430152820 0.4335495434 0.0404932285 0.0208834241 0.0701106833 0.0172658626 -0.0001419250 0.0505459676 0.0106942426 0.0000917993 0.0004082385 0.0671296200 0.0021126929 0.0229765857 0.0204231963 0.0044268789 0.2501298724 0.0050725708 0.0155685619 0.2852827688 0.0164735025 -0.0002730272 0.2787615231 0.0125959317 -0.0002775286 0.4595256790 0.0031952162 0.0201899619 0.4646558252 0.0166145368 0.0274321045 0.4606841867 0.0492307568 0.0084261210 0.4038556231 0.0385954527 -0.0003069715 0.4055366465 0.0482510707 -0.0001079950 0.4810453386 0.0793799059 0.0281089752 0.4521526255 0.0298928991 0.0218349631 0.3979716561 0.0138595215 0.0142558624 0.4537732141 0.0110026104 0.0165073241 0.3847086674 0.0109825003 0.0008437378 0.1791210445 0.0066533899 0.0236839235 0.1937160841 0.0196061264 0.0215964818 0.0482112843 0.0075083776 0.0053227137 0.3681756048 0.0189483981 0.0112807132 0.1821856821 0.0051665989 0.0005727597 0.1329866685 0.0027097498 -0.0000169355 0.1227961594 0.0070153746 0.0005882381 0.0734745829 0.0145189808 0.0021569792 0.2093727949 0.0012282586 0.0118715815 0.3012445062 0.0163829556 0.0019533301 0.3388663376 0.0335670695 0.0014799332 0.2629748039 0.0476203404 0.0171369381 0.2037721857 0.0331779556 0.0221069075 0.2935546712 0.0127068324 0.0035381548 0.4699702988 0.0285517310 0.0001241300 0.4112843933 0.0567196853 0.0124502443 0.4033235417 0.0587418233 0.0025045295 0.4348659977 0.0281167121 0.0147952287 0.4318744298 0.0461965458 0.0164026086 0.2809556944 0.0101381658 0.0171891985 0.4434496192 0.0124229873 0.0179682892 0.4587952491 0.0071298073 0.0253811372 0.4873401417 0.0072637552 0.0304694949 0.3357307723 0.0266955934 0.0079427998 0.4591274992 0.0509274908 0.0295333638 0.0841149928 0.0254069579 0.0000843623 0.1604818966 0.0122092283 0.0001362396 0.1242646454 0.0100603179 0.0149186012 0.1932222005 0.0095122114 0.0221196863 0.2774829016 0.0214991558 0.0155745851 0.3018870176 0.0006396492 0.0072214413 0.3377906023 0.0095054531 0.0004244725 0.2909421997 0.0181080227 0.0092989835 0.4839591642 0.0012070797 0.0006095402 0.4987499813 0.0379742638 0.0196438566 0.4181674449 0.0635811272 0.0051430495 0.3649186620 0.0514774528 0.0011363210 0.4449010048 0.0531256852 0.0194747435 0.4343757662 0.0366985408 0.0152633011 0.3681143681 0.0209381351 0.0170670052 0.4861608531 0.0433363189 0.0288725489 0.0792981241 0.0154039333 0.0056745148 0.2085844156 0.0295317702 0.0171864782 0.0670316651 0.0087423439 0.0104101184 0.4599523117 0.0589276455 0.0237116061 0.3440946573 0.0183065658 0.0120818492 0.1298403720 0.0240548433 0.0004665188 0.1583241924 -0.0001448483 0.0013415467 0.2335149588 0.0002651941 0.0089968316 0.1611918329 0.0030275526 0.0002132407 0.0964286059 0.0107023891 -0.0002542742 0.2709625765 0.0314516435 0.0069513108 0.3026763409 0.0299231093 0.0021502077 0.4654855419 0.0214027531 0.0263417756 0.2381725810 0.0469456472 0.0194621287 0.4536145730 0.0117162132 0.0022477343 0.4936016545 0.0405304968 0.0077404745 0.3332760567 0.0535493730 0.0057972188 0.3752492620 0.0462091466 -0.0003718622 0.4426095614 0.0777005443 0.0156312977 0.3853813217 0.0220423166 0.0042752981 0.1628199260 0.0174592149 0.0219804050 0.3330806049 0.0143275024 0.0168109355 0.3177595848 0.0457797836 0.0207497854 0.4808539027 0.0097795294 0.0355215516 0.4798634917 0.0360722974 0.0441414601 0.4636632334 0.0623596561 0.0277525343 0.0976581095 0.0321523018 0.0008135161 0.1433852017 0.0275514474 0.0009304335 0.1861899130 0.0014551818 0.0093243293 0.0943364482 0.0003724760 0.0045192417 0.1905725860 0.0001976247 0.0005284082 0.2365819607 0.0119327964 -0.0001492214 0.3482795673 0.0035162381 0.0013461445 0.4538241889 0.0016804466 0.0048706879 0.2872515015 0.0366503827 0.0135991180 0.3482364764 0.0141135391 0.0128683224 0.3510103842 0.0466564823 0.0058366578 0.3133947910 0.0576537510 0.0043306564 0.4052680845 0.0600552617 0.0164548338 0.4788116768 0.0529411055 0.0214705396 0.4268790288 0.0199901092 0.0014051393 0.1860012982 0.0280658770 0.0222025618 0.2311347606 0.0243823266 0.0043717247 0.0110695931 0.0006152827 0.0096655575 0.0935700373 0.0149436333 0.0111505272 0.4091595274 0.0287356293 0.0069479938 0.3573418666 0.0343851475 0.0075512213 0.2214077745 0.0077573637 0.0049775336 0.1614878682 0.0143495561 0.0093687953 0.1442885204 0.0004343548 0.0003406361 0.0208566006 0.0226438423 0.0000691281 0.1691464716 0.0214825238 0.0108865687 0.2456819337 -0.0000028418 0.0012913787 0.4459807883 0.0288468005 0.0077634090 0.2511291066 0.0374615964 0.0027996410 0.2490156475 0.0089289989 0.0001729596 0.4714508675 0.0352362443 0.0053233455 0.4153863474 0.0118024424 -0.0004183155 0.4126972197 0.0721129521 0.0000525229 0.3816411053 0.0480853532 0.0048810325 0.4285310426 0.0670912139 0.0159501513 0.3507167994 0.0341250928 0.0179487161 0.3529557241 0.0381561286 0.0188425402 0.1576681920 0.0188479018 0.0143973192 0.2297112797 0.0502656962 0.0211274576 0.0171014261 0.0158574823 0.0135865082 0.4749841095 0.0922149651 0.0315342429 0.3306743377 0.0437062974 0.0211996474 0.1876072444 0.0055666936 0.0006260744 0.0364832656 0.0060543417 0.0103645583 0.1580404684 0.0378880388 0.0163142335 0.1291377434 0.0004047213 0.0009447021 0.1626652530 0.0213227207 0.0005766374 0.2249407894 0.0455828378 0.0091160816 0.4029376448 0.0258808246 0.0007504417 0.2429598467 0.0293797053 -0.0000369960 0.2541721562 0.0178690162 0.0082742473 0.2798549214 0.0386811379 0.0094945084 0.4811470569 0.0865688935 0.0339236514 0.3995463096 0.0573789039 0.0047139752 0.3207561343 0.0682175639 0.0063603615 0.2656834866 0.0204411647 0.0058852317 0.4327907332 0.0820124004 0.0164698917 0.3294949115 0.0336629657 0.0173751013 0.0231195168 0.0260315073 0.0038581637 0.0131761923 0.0500909682 0.0104651471 0.4542803610 0.0807271941 0.0184999530 0.1686740446 0.0418641777 0.0227972479 0.4562877062 0.0665378073 0.0251919631 0.2001455475 0.0043826642 0.0008833248 0.1668335898 0.0587078864 0.0161363872 0.1008400276 0.0003000411 0.0037673330 0.1057923130 0.0018690454 0.0051249039 0.0751427589 0.0135666849 0.0078796694 0.2625782024 0.0179926309 0.0009082413 0.3319735046 0.0137358815 0.0015092857 0.2567455939 0.0157775030 -0.0004141774 0.3647958859 0.0246273549 0.0118462112 0.2868368922 0.0428232320 0.0152276007 0.3546547907 0.0502207265 0.0091301236 0.4727916832 0.0575559765 0.0171476923 0.4597413904 0.0812802144 0.0267836190 0.3982896037 0.0783056063 0.0087139690 0.2270635216 0.0536717386 0.0045528958 0.2229016732 0.0414610602 -0.0002545641 0.4279692162 0.0394945529 0.0204259884 0.4165960330 0.0196050741 0.0182749681 0.4083902107 0.0313572161 0.0119181251 0.3575861595 0.0796802613 0.0090067500 0.1928950862 0.0183329383 0.0266126745 0.2095266876 0.0099779069 0.0002158747 0.2179586065 0.0063303765 0.0088341470 0.1727292606 0.0104393817 0.0046100578 0.1353893222 0.0165643218 0.0007642992 0.0336075322 0.0172783426 0.0068630351 0.2892929497 0.0281007417 0.0052632198 0.3931808642 0.0335124734 0.0003460787 0.3835707377 0.0179661490 0.0000919079 0.4327816714 0.0118834830 0.0004404315 0.2907115113 0.0153194580 0.0001275592 0.4203005621 0.0483894266 0.0074704418 0.3208963905 0.0746549999 0.0011260544 0.4886137902 0.0595530278 0.0241937380 0.4275317252 0.0736354703 0.0067864519 0.3859149523 0.0513214669 0.0043927205 0.4673128789 0.0440690879 0.0339910128 0.3694244782 0.0734831780 0.0195262119 0.4270498140 0.0572637852 0.0187086515 0.3475253758 0.0570648468 0.0206512282 0.1239886281 0.0545079752 0.0167785151 0.4720746811 0.0826538036 0.0223417761 0.2036562859 0.0724730752 0.0000123200 0.1935675907 0.0827595821 0.0129430869 0.2070667465 0.0907549063 0.0044864855 0.1708805251 0.0177280175 0.0130787932 0.1228829251 0.0559330317 0.0117523302 0.2713131493 0.0421266595 0.0031998751 0.2938443310 0.0348254525 0.0022364490 0.2256714034 0.0594023506 0.0077520202 0.1713398963 0.0368271123 0.0163441427 0.4315106796 0.0254491750 0.0050234612 0.3387701959 0.0757859269 0.0050041386 0.3719038830 0.0802743102 0.0074948801 0.4121820472 0.0833841397 0.0074775697 0.3410563485 0.0830149393 0.0099392100 0.2287663846 0.0479224193 0.0087398384 0.4651209765 0.0568079008 0.0119712338 0.4227179103 0.0530379502 0.0171682420 0.1304777074 0.0382651626 0.0210217224 0.2020842822 0.0442976964 0.0219173129 0.0895440055 0.0738755987 0.0108393368 0.3964739148 0.0739356854 0.0219432174 0.1873805774 0.0508467666 0.0056348506 0.1860028169 0.0627789725 0.0043558313 0.1586851784 0.0845135878 0.0020813034 0.1565711479 0.0095916987 0.0054511804 0.1834973437 0.0302519610 0.0081255395 0.2678635223 0.0413937175 0.0077212859 0.3192812721 0.0465807188 0.0108254893 0.2338178044 0.0369085479 -0.0001101011 0.1677582479 0.0175195241 0.0075058585 0.2984089493 0.0589028429 0.0071720926 0.3170060857 0.0802307592 0.0108324675 0.4816006394 0.0750251033 0.0088497330 0.3
[...]
      <PointData Scalars="smoothLength">
        <DataArray type="Float32" Name="smoothLength" format="ascii">
 0.0065000000 0.0065000000 0.0065000000 0.0065000000 0.0065000000 0.0065000000 0.0065000000 0.0065000000 0.0065000000 0.0065000000 0.0065000000 0.0065000000 0.0065000000 0.0065000000 0.0065000000 0.0065000000 0.0065000000 0.0065000000 0.0065000000 0.0065000000 0.0065000000 0.0065000000 0.0065000000 0.0065000000 0.0065000000 0.0065000000 0.0065000000 0.0065000000 0.0065000000 0.0065000000 0.0065000000 0.0065000000 0.0065000000 0.0065000000 0.0065000000 0.0065000000 0.0065000000 0.0065000000 0.0065000000 0.0065000000 0.0065000000 0.0065000000 0.0065000000 0.0065000000 0.0065000000 0.0065000000 0.0065000000 0.0065000000 0.0065000000 0.0065000000 0.0065000000 0.0065000000 0.0065000000 0.0065000000 0.0065000000 0.0065000000 0.0065000000 0.0065000000 0.0065000000 0.0065000000 0.0065000000 0.0065000000 0.0065000000 0.0065000000 0.0065000000 0.0065000000 0.0065000000 0.0065000000 0.0065000000 0.0065000000 0.0065000000 0.0065000000 0.0065000000 0.0065000000 0.0065000000 0.0065000000 0.0065000000 0.0065000000 0.0065000000 0.0065000000 0.0065000000 0.0065000000 0.0065000000 0.0065000000 0.0065000000 0.0065000000 0.0065000000 0.0065000000 0.0065000000 0.0065000000 0.0065000000 0.0065000000 0.0065000000 0.0065000000 0.0065000000 0.0065000000 0.0065000000 0.0065000000 0.0065000000 0.0065000000 0.0065000000 0.0065000000 0.0065000000 0.0065000000 0.0065000000 0.0065000000 0.0065000000 0.0065000000 0.0065000000 0.0065000000 0.0065000000 0.0065000000 0.0065000000 0.0065000000 0.0065000000 0.0065000000 0.0065000000 0.0065000000 0.0065000000 0.0065000000 0.0065000000 0.0065000000 0.0065000000 0.0065000000 0.0065000000 0.0065000000 0.0065000000 0.0065000000 0.0065000000 0.0065000000 0.0065000000 0.0065000000 0.0065000000 0.0065000000 0.0065000000 0.0065000000 0.0065000000 0.0065000000 0.0065000000 0.0065000000 0.0065000000 0.0065000000 0.0065000000 0.0065000000 0.0065000000 0.0065000000 0.0065000000 0.0065000000 0.0065000000 0.0065000000 0.0065000000 0.0065000000 0.0065000000 0.0065000000 0.0065000000 0.0065000000 0.0065000000 0.0065000000 0.0065000000 0.0065000000 0.0065000000 0.0065000000 0.0065000000 0.0065000000 0.0065000000 0.0065000000 0.0065000000 0.0065000000 0.0065000000 0.0065000000 0.0065000000 0.0065000000 0.0065000000 0.0065000000 0.0065000000 0.0065000000 0.0065000000 0.0065000000 0.0065000000 0.0065000000 0.0065000000 0.0065000000 0.0065000000 0.0065000000 0.0065000000 0.0065000000 0.0065000000 0.0065000000 0.0065000000 0.0065000000 0.0065000000 0.0065000000 0.0065000000 0.0065000000 0.0065000000 0.0065000000 0.0065000000 0.0065000000 0.0065000000 0.0065000000 0.0065000000 0.0065000000 0.0065000000 0.0065000000 0.0065000000 0.0065000000 0.0065000000 0.0065000000 0.0065000000 0.0065000000 0.0065000000 0.0065000000 0.0065000000 0.0065000000 0.0065000000 0.0065000000 0.0065000000 0.0065000000 0.0065000000 0.0065000000 0.0065000000 0.0065000000 0.0065000000 0.0065000000 0.0065000000 0.0065000000 0.0065000000 0.0065000000 0.0065000000 0.0065000000 0.0065000000 0.0065000000 0.0065000000 0.0065000000 0.0065000000 0.0065000000 0.0065000000 0.0065000000 0.0065000000 0.0065000000 0.0065000000 0.0065000000 0.0065000000 0.0065000000 0.0065000000 0.0065000000 0.0065000000 0.0065000000 0.0065000000 0.0065000000 0.0065000000 0.0065000000 0.0065000000 0.0065000000 0.0065000000 0.0065000000 0.0065000000 0.0065000000 0.0065000000 0.0065000000 0.0065000000 0.0065000000 0.0065000000 0.0065000000 0.0065000000 0.0065000000 0.0065000000 0.0065000000 0.0065000000 0.0065000000 0.0065000000 0.0065000000 0.0065000000 0.0065000000 0.0065000000 0.0065000000 0.0065000000 0.0065000000 0.0065000000 0.0065000000 0.0065000000 0.0065000000 0.0065000000 0.0065000000 0.0065000000 0.0065000000 0.0065000000 0.0065000000 0.0065000000 0.0065000000 0.0065000000 0.0065000000 0.0065000000 0.0065000000 0.0065000000 0.0065000000 0.0065000000 0.0065000000 0.0065000000 0.0065000000 0.0065000000 0.0065000000 0.0065000000 0.0065000000 0.0065000000 0.0065000000 0.0065000000 0.0065000000 0.0065000000 0.0065000000 0.0065000000 0.0065000000 0.0065000000 0.0065000000 0.0065000000 0.0065000000 0.0065000000 0.0065000000 0.0065000000 0.0065000000 0.0065000000 0.0065000000 0.0065000000 0.0065000000 0.0065000000 0.0065000000 0.0065000000 0.0065000000 0.0065000000 0.0065000000 0.0065000000 0.0065000000 0.0065000000 0.0065000000 0.0065000000 0.0065000000 0.0065000000 0.0065000000 0.0065000000 0.0065000000 0.0065000000 0.0065000000 0.0065000000 0.0065000000 0.0065000000 0.0065000000 0.0065000000 0.0065000000 0.0065000000 0.0065000000 0.0065000000 0.0065000000 0.0065000000 0.0065000000 0.0065000000 0.0065000000 0.0065000000 0.0065000000 0.0065000000 0.0065000000 0.0065000000 0.0065000000 0.0065000000 0.0065000000 0.0065000000 0.0065000000 0.0065000000 0.0065000000 0.0065000000 0.0065000000 0.0065000000 0.0065000000 0.0065000000 0.0065000000 0.0065000000 0.0065000000 0.0065000000 0.0065000000 0.0065000000 0.0065000000 0.0065000000 0.0065000000 0.0065000000 0.0065000000 0.0065000000 0.0065000000 0.0065000000 0.0065000000 0.0065000000 0.0065000000 0.0065000000 0.0065000000 0.0065000000 0.0065000000 0.0065000000 0.0065000000 0.0065000000 0.0065000000 0.0065000000 0.0065000000 0.0065000000 0.0065000000 0.0065000000 0.0065000000 0.0065000000 0.0065000000 0.0065000000 0.0065000000 0.0065000000 0.0065000000 0.0065000000 0.0065000000 0.0065000000 0.0065000000 0.0065000000 0.0065000000 0.0065000000 0.0065000000 0.0065000000 0.0065000000 0.0065000000 0.0065000000 0.0065000000 0.0065000000 0.0065000000 0.0065000000 0.0065000000 0.0065000000 0.0065000000 0.0065000000 0.0065000000 0.0065000000 0.0065000000 0.0065000000 0.0065000000 0.0065000000 0.0065000000 0.0065000000 0.0065000000 0.0065000000 0.0065000000 0.0065000000 0.0065000000 0.0065000000 0.0065000000 0.0065000000 0.0065000000 0.0065000000 0.0065000000 0.0065000000 0.0065000000 0.0065000000 0.0065000000 0.0065000000 0.0065000000 0.0065000000 0.0065000000 0.0065000000 0.0065000000 0.0065000000 0.0065000000 0.0065000000 0.0065000000 0.0065000000 0.0065000000 0.0065000000 0.0065000000 0.0065000000 0.0065000000 0.0065000000 0.0065000000 0.0065000000 0.0065000000 0.0065000000 0.0065000000 0.0065000000 0.0065000000 0.0065000000 0.0065000000 0.0065000000 0.0065000000 0.0065000000 0.0065000000 0.0065000000 0.0065000000 0.0065000000 0.0065000000 0.0065000000 0.0065000000 0.0065000000 0.0065000000 0.0065000000 0.0065000000 0.0065000000 0.0065000000 0.0065000000 0.0065000000 0.0065000000 0.0065000000 0.0065000000 0.0065000000 0.0065000000 0.0065000000 0.0065000000 0.0065000000 0.0065000000 0.0065000000 0.0065000000 0.0065000000 0.0065000000 0.0065000000 0.0065000000 0.0065000000 0.0065000000 0.0065000000 0.0065000000 0.0065000000 0.0065000000 0.0065000000 0.0065000000 0.0065000000 0.0065000000 0.0065000000 0.0065000000 0.0065000000 0.0065000000 0.0065000000 0.0065000000 0.0065000000 0.0065000000 0.0065000000 0.0065000000 0.0065000000 0.0065000000 0.0065000000 0.0065000000 0.0065000000 0.0065000000 0.0065000000 0.0065000000 0.0065000000 0.0065000000 0.0065000000 0.0065000000 0.0065000000 0.0065000000 0.0065000000 0.0065000000 0.0065000000 0.0065000000 0.0065000000 0.0065000000 0.0065000000 0.0065000000 0.0065000000 0.0065000000 0.0065000000 0.0065000000 0.0065000000 0.0065000000 0.0065000000 0.0065000000 0.0065000000 0.0065000000 0.0065000000 0.0065000000 0.0065000000 0.0065000000 0.0065000000 0.0065000000 0.0065000000 0.0065000000 0.0065000000 0.0065000000 0.0065000000 0.0065000000 0.0065000000 0.0065000000 0.0065000000 0.0065000000 0.0065000000 0.0065000000 0.0065000000 0.0065000000 0.0065000000 0.0065000000 0.0065000000 0.0065000000 0.0065000000 0.0065000000 0.0065000000 0.0065000000 0.0065000000 0.0065000000 0.0065000000 0.0065000000 0.0065000000 0.0065000000 0.0065000000 0.0065000000 0.0065000000 0.0065000000 0.0065000000 0.0065000000 0.0065000000 0.0065000000 0.0065000000 0.0065000000 0.0065000000 0.0065000000 0.0065000000 0.0065000000 0.0065000000 0.0065000000 0.0065000000 0.0065000000 0.0065000000 0.0065000000 0.0065000000 0.0065000000 0.0065000000 0.0065000000 0.0065000000 0.0065000000 0.0065000000 0.0065000000 0.0065000000 0.0065000000 0.0065000000 0.0065000000 0.0065000000 0.0065000000 0.0065000000 0.0065000000 0.0065000000 0.0065000000 0.0065000000 0.0065000000 0.0065000000 0.0065000000 0.0065000000 0.0065000000 0.0065000000 0.0065000000 0.0065000000 0.0065000000 0.0065000000 0.0065000000 0.0065000000 0.0065000000 0.0065000000 0.0065000000 0.0065000000 0.0065000000 0.0065000000 0.0065000000 0.0065000000 0.0065000000 0.0065000000 0.0065000000 0.0065000000 0.0065000000 0.0065000000 0.0065000000 0.0065000000 0.0065000000 0.0065000000 0.0065000000 0.0065000000 0.0065000000 0.0065000000 0.0065000000 0.0065000000 0.0065000000 0.0065000000 0.0065000000 0.0065000000 0.0065000000 0.0065000000 0.0065000000 0.0065000000 0.0065000000 0.0065000000 0.0065000000 0.0065000000 0.0065000000 0.0065000000 0.0065000000 0.0065000000 0.0065000000 0.0065000000 0.0065000000 0.0065000000 0.0065000000 0.0065000000 0.0065000000 0.0065000000 0.0065000000 0.0065000000 0.0065000000 0.0065000000 0.0065000000 0.0065000000 0.0065000000 0.0065000000 0.0065000000 0.0065000000 0.0065000000 0.0065000000 0.0065000000 0.0065000000 0.0065000000 0.0065000000 0.0065000000 0.0065000000 0.0065000000 0.0065000000 0.0065000000 0.0065000000 0.0065000000 0.0065000000 0.0065000000 0.0065000000 0.0065000000 0.0065000000 0.0065000000 0.0065000000 0.0065000000 0.0065000000 0.0065000000 0.0065000000 0.0065000000 0.0065000000 0.0065000000 0.0065000000 0.0065000000 0.0065000000 0.0065000000 0.0065000000 0.0065000000 0.0065000000 0.0065000000 0.0065000000 0.0065000000 0.0065000000 0.0065000000 0.0065000000 0.0065000000 0.0065000000 0.0065000000 0.0065000000 0.0065000000 0.0065000000 0.0065000000 0.0065000000 0.0065000000 0.0065000000 0.0065000000 0.0065000000 0.0065000000 0.0065000000 0.0065000000 0.0065000000 0.0065000000 0.0065000000 0.0065000000 0.0065000000 0.0065000000 0.0065000000 0.0065000000 0.0065000000 0.0065000000 0.0065000000 0.0065000000 0.0065000000 0.0065000000 0.0065000000 0.0065000000 0.0065000000 0.0065000000 0.0065000000 0.0065000000 0.0065000000 0.0065000000 0.0065000000 0.0065000000 0.0065000000 0.0065000000 0.0065000000 0.0065000000 0.0065000000 0.0065000000 0.0065000000 0.0065000000 0.0065000000 0.0065000000 0.0065000000 0.0065000000 0.0065000000 0.0065000000 0.0065000000 0.0065000000 0.0065000000 0.0065000000 0.0065000000 0.0065000000 0.0065000000 0.0065000000 0.0065000000 0.0065000000 0.0065000000 0.0065000000 0.0065000000 0.0065000000 0.0065000000 0.0065000000 0.0065000000 0.0065000000 0.0065000000 0.0065000000 0.0065000000 0.0065000000 0.0065000000 0.0065000000 0.0065000000 0.0065000000 0.0065000000 0.0065000000 0.0065000000 0.0065000000 0.0065000000 0.0065000000 0.0065000000 0.0065000000 0.0065000000 0.0065000000 0.0065000000 0.0065000000 0.0065000000 0.0065000000 0.0065000000 0.0065000000 0.0065000000 0.0065000000 0.0065000000 0.0065000000 0.0065000000 0.0065000000 0.0065000000 0.0065000000 0.0065000000 0.0065000000 0.0065000000 0.0065000000 0.0065000000 0.0065000000 0.0065000000 0.0065000000 0.0065000000 0.0065000000 0.0065000000 0.0065000000 0.0065000000 0.0065000000 0.0065000000 0.0065000000 0.0065000000 0.0065000000 0.0065000000 0.0065000000 0.0065000000 0.0065000000 0.0065000000 0.0065000000 0.0065000000 0.0065000000 0.0065000000 0.0065000000 0.0065000000 0.0065000000 0.0065000000 0.0065000000 0.0065000000 0.0065000000 0.0065000000 0.0065000000 0.0065000000 0.0065000000 0.0065000000 0.0065000000 0.0065000000 0.0065000000 0.0065000000 0.0065000000 0.0065000000 0.0065000000 0.0065000000 0.0065000000 0.0065000000 0.0065000000 0.0065000000 0.0065000000 0.0065000000 0.0065000000 0.0065000000 0.0065000000 0.0065000000 0.0065000000 0.0065000000 0.0065000000 0.0065000000 0.0065000000 0.0065000000 0.0065000000 0.0065000000 0.0065000000 0.0065000000 0.0065000000 0.0065000000 0.0065000000 0.0065000000 0.0065000000 0.0065000000 0.0065000000 0.0065000000 0.0065000000 0.0065000000 0.0065000000 0.0065000000 0.0065000000 0.0065000000 0.0065000000 0.0065000000 0.0065000000 0.0065000000 0.0065000000 0.0065000000 0.0065000000 0.0065000000 0.0065000000 0.0065000000 0.0065000000 0.0065000000 0.0065000000 0.0065000000 0.0065000000 0.0065000000 0.0065000000 0.0065000000 0.0065000000 0.0065000000 0.0065000000 0.0065000000 0.0065000000 0.0065000000 0.0065000000 0.0065000000 0.0065000000 0.0065000000 0.0065000000 0.0065000000 0.0065000000 0.0065000000 0.0065000000 0.0065000000 0.0065000000 0.0065000000 0.0065000000 0.0065000000 0.0065000000 0.0065000000 0.0065000000 0.0065000000 0.0065000000 0.0065000000 0.0065000000 0.0065000000 0.0065000000 0.0065000000 0.0065000000 0.0065000000 0.0065000000 0.0065000000 0.0065000000 0.0065000000 0.0065000000 0.0065000000 0.0065000000 0.0065000000 0.0065000000 0.0065000000 0.0065000000 0.0065000000 0.0065000000 0.0065000000 0.0065000000 0.0065000000 0.0065000000 0.0065000000 0.0065000000 0.0065000000 0.0065000000 0.0065000000 0.0065000000 0.0065000000 0.0065000000 0.0065000000 0.0065000000 0.0065000000 0.0065000000 0.0065000000 0.0065000000 0.0065000000 0.0065000000 0.0065000000 0.0065000000 0.0065000000 0.0065000000 0.0065000000 0.0065000000 0.0065000000 0.0065000000 0.0065000000 0.0065000000 0.0065000000 0.0065000000 0.0065000000 0.0065000000 0.0065000000 0.0065000000 0.0065000000 0.0065000000 0.0065000000 0.0065000000 0.0065000000 0.0065000000 0.0065000000 0.0065000000 0.0065000000 0.0065000000 0.0065000000 0.0065000000 0.0065000000 0.0065000000 0.0065000000 0.0065000000 0.0065000000 0.0065000000 0.0065000000 0.0065000000 0.0065000000 0.0065000000 0.0065000000 0.0065000000 0.0065000000 0.0065000000 0.0065000000 0.0065000000 0.0065000000 0.0065000000 0.0065000000 0.0065000000 0.0065000000 0.0065000000 0.0065000000 0.0065000000 0.0065000000 0.0065000000 0.0065000000 0.0065000000 0.0065000000 0.0065000000 0.0065000000 0.0065000000 0.0065000000 0.0065000000 0.0065000000 0.0065000000 0.0065000000 0.0065000000 0.0065000000 0.0065000000 0.0065000000 0.0065000000 0.0065000000 0.0065000000 0.0065000000 0.0065000000 0.0065000000 0.0065000000 0.0065000000 0.0065000000 0.0065000000 0.0065000000 0.0065000000 0.0065000000 0.0065000000 0.0065000000 0.0065000000 0.0065000000 0.0065000000 0.0065000000 0.0065000000 0.0065000000 0.0065000000 0.0065000000 0.0065000000 0.0065000000 0.0065000000 0.0065000000 0.0065000000 0.0065000000 0.0065000000 0.0065000000 0.0065000000 0.0065000000 0.0065000000 0.0065000000 0.0065000000 0.0065000000 0.0065000000 0.0065000000 0.0065000000 0.0065000000 0.0065000000 0.0065000000 0.0065000000 0.0065000000 0.0065000000 0.0065000000 0.0065000000 0.0065000000 0.0065000000 0.0065000000 0.0065000000 0.0065000000 0.0065000000 0.0065000000 0.0065000000 0.0065000000 0.0065000000 0.0065000000 0.0065000000 0.0065000000 0.0065000000 0.0065000000 0.0065000000 0.0065000000 0.0065000000 0.0065000000 0.0065000000 0.0065000000 0.0065000000 0.0065000000 0.0065000000 0.0065000000 0.0065000000 0.0065000000 0.0065000000 0.0065000000 0.0065000000 0.0065000000 0.0065000000 0.0065000000 0.0065000000 0.0065000000 0.0065000000 0.0065000000 0.0065000000 0.0065000000 0.0065000000 0.0065000000 0.0065000000 0.0065000000 0.0065000000 0.0065000000 0.0065000000 0.0065000000 0.0065000000 0.0065000000 0.0065000000 0.0065000000 0.0065000000 0.0065000000 0.0065000000 0.0065000000 0.0065000000 0.0065000000 0.0065000000 0.0065000000 0.0065000000 0.0065000000 0.0065000000 0.0065000000 0.0065000000 0.0065000000 0.0065000000 0.0065000000 0.0065000000 0.0065000000 0.0065000000 0.0065000000 0.0065000000 0.0065000000 0.0065000000 0.0065000000 0.0065000000 0.0065000000 0.0065000000 0.0065000000 0.0065000000 0.0065000000 0.0065000000 0.0065000000 0.0065000000 0.0065000000 0.0065000000 0.0065000000 0.0065000000 0.0065000000 0.0065000000 0.0065000000 0.0065000000 0.0065000000 0.0065000000 0.0065000000 0.0065000000 0.0065000000 0.0065000000 0.0065000000 0.0065000000 0.0065000000 0.0065000000 0.0065000000 0.0065000000 0.0065000000 0.0065000000 0.0065000000 0.0065000000 0.0065000000 0.0065000000 0.0065000000 0.0065000000 0.0065000000 0.0065000000 0.0065000000 0.0065000000 0.0065000000 0.0065000000 0.0065000000 0.0065000000 0.0065000000 0.0065000000 0.0065000000 0.0065000000 0.0065000000 0.0065000000 0.0065000000 0.0065000000 0.0065000000 0.0065000000 0.0065000000 0.0065000000 0.0065000000 0.0065000000 0.0065000000 0.0065000000 0.0065000000 0.0065000000 0.0065000000 0.0065000000 0.0065000000 0.0065000000 0.0065000000 0.0065000000 0.0065000000 0.0065000000 0.0065000000 0.0065000000 0.0065000000 0.0065000000 0.0065000000 0.0065000000 0.0065000000 0.0065000000 0.0065000000 0.0065000000 0.0065000000 0.0065000000 0.0065000000 0.0065000000 0.0065000000 0.0065000000 0.0065000000 0.0065000000 0.0065000000 0.0065000000 0.0065000000 0.0065000000 0.0065000000 0.0065000000 0.0065000000 0.0065000000 0.0065000000 0.0065000000 0.0065000000 0.0065000000 0.0065000000 0.0065000000 0.0065000000 0.0065000000 0.0065000000 0.0065000000 0.0065000000 0.0065000000 0.0065000000 0.0065000000 0.0065000000 0.0065000000 0.0065000000 0.0065000000 0.0065000000 0.0065000000 0.0065000000 0.0065000000 0.0065000000 0.0065000000 0.0065000000 0.0065000000 0.0065000000 0.0065000000 0.0065000000 0.0065000000 0.0065000000 0.0065000000 0.0065000000 0.0065000000 0.0065000000 0.0065000000 0.0065000000 0.0065000000 0.0065000000 0.0065000000 0.0065000000 0.0065000000 0.0065000000 0.0065000000 0.0065000000 0.0065000000 0.0065000000 0.0065000000 0.0065000000 0.0065000000 0.0065000000 0.0065000000 0.0065000000 0.0065000000 0.0065000000 0.0065000000 0.0065000000 0.0065000000 0.0065000000 0.0065000000 0.0065000000 0.0065000000 0.0065000000 0.0065000000 0.0065000000 0.0065000000 0.0065000000 0.0065000000 0.0065000000 0.0065000000 0.0065000000 0.0065000000 0.0065000000 0.0065000000 0.0065000000 0.0065000000 0.0065000000 0.0065000000 0.0065000000 0.0065000000 0.0065000000 0.0065000000 0.0065000000 0.0065000000 0.0065000000 0.0065000000 0.0065000000 0.0065000000 0.0065000000 0.0065000000 0.0065000000 0.0065000000 0.0065000000 0.0065000000 0.0065000000 0.0065000000 0.0065000000 0.0065000000 0.0065000000 0.0065000000 0.0065000000 0.0065000000 0.0065000000 0.0065000000 0.0065000000 0.0065000000 0.0065000000 0.0065000000 0.0065000000 0.0065000000 0.0065000000 0.0065000000 0.0065000000 0.0065000000 0.0065000000 0.0065000000 0.0065000000 0.0065000000 0.0065000000 0.0065000000 0.0065000000 0.0065000000 0.0065000000 0.0065000000 0.0065000000 0.0065000000 0.0065000000 0.0065000000 0.0065000000 0.0065000000 0.0065000000 0.0065000000 0.0065000000 0.0065000000 0.0065000000 0.0065000000 0.0065000000 0.0065000000 0.0065000000 0.0065000000 0.0065000000 0.0065000000 0.0065000000 0.0065000000 0.0065000000 0.0065000000 0.0065000000 0.0065000000 0.0065000000 0.0065000000 0.0065000000 0.0065000000 0.0065000000 0.0065000000 0.0065000000 0.0065000000 0.0065000000 0.0065000000 0.0065000000 0.0065000000 0.0065000000 0.0065000000 0.0065000000 0.0065000000 0.0065000000 0.0065000000 0.0065000000 0.0065000000 0.0065000000 0.0065000000 0.0065000000 0.0065000000 0.0065000000 0.0065000000 0.0065000000 0.0065000000 0.0065000000 0.0065000000 0.0065000000 0.0065000000 0.0065000000 0.0065000000 0.0065000000 0.0065000000 0.0065000000 0.0065000000 0.0065000000 0.0065000000 0.0065000000 0.0065000000 0.0065000000 0.0065000000 0.0065000000 0.0065000000 0.0065000000 0.0065000000 0.0065000000 0.0065000000 0.0065000000 0.0065000000 0.0065000000 0.0065000000 0.0065000000 0.0065000000 0.0065000000 0.0065000000 0.0065000000 0.0065000000 0.0065000000 0.0065000000 0.0065000000 0.0065000000 0.0065000000 0.0065000000 0.0065000000 0.0065000000 0.0065000000 0.0065000000 0.0065000000 0.0065000000 0.0065000000 0.0065000000 0.0065000000 0.0065000000 0.0065000000 0.0065000000 0.006500000