<?xml version="1.0"?>
<VTKFile type="UnstructuredGrid" version="0.1" byte_order="LittleEndian">
  <UnstructuredGrid>
    <FieldData>
      <DataArray type="Float32" Name="TIME"  NumberOfTuples="1" format="ascii"> 0.7994493729 </DataArray>
      <DataArray type="Int32"   Name="STEP"  NumberOfTuples="1" format="ascii"> 10720 </DataArray>
    </FieldData>
    <Piece NumberOfPoints="18081" NumberOfCells="18081">
      <Points>
        <DataArray type="Float32" NumberOfComponents="3" format="ascii">
 0.1139086051 0.0243801272 0.0033910111 0.1415636393 0.0303201878 0.0000481687 0.1565378496 0.0288642845 -0.0003950384 0.1858065770 0.0275534015 -0.0003112051 0.2177704225 0.0237667414 -0.0007299359 0.2310729194 0.0232442292 -0.0006519856 0.2993889420 0.0146659856 -0.0007411248 0.3408400159 0.0234070220 0.0017590316 0.3536688545 0.0122314601 0.0152864978 0.3168054513 0.0181958241 0.0393752866 0.3753867218 0.0204159402 0.0052732687 0.4585201746 0.0176985178 0.0218464441 0.4850785363 0.0264627231 0.0253483719 0.4727052122 0.0232661730 0.0342895851 0.4389237247 0.0176024641 0.0247150081 0.4176095684 0.0154329824 0.0009601463 0.3931699970 0.0141170852 0.0050424392 0.3841629011 0.0195635660 0.0049700935 0.3213990661 0.0028932758 0.0472734188 0.3807268384 0.0108840631 0.0213999941 0.3701904150 0.0234903396 0.0298343856 0.1176552813 0.0258056478 0.0024742702 0.1262132686 0.0265889427 -0.0002066769 0.1538345072 0.0270812787 0.0023346886 0.1827623674 0.0267126432 0.0022143656 0.2629426143 0.0282923926 -0.0001464983 0.3162723541 0.0231430575 0.0017218643 0.3495242605 0.0268717760 0.0060893021 0.3651634631 0.0180812768 -0.0012618550 0.3662083968 0.0231693295 0.0124839519 0.4792813495 0.0240753609 0.0226758872 0.4733065080 0.0296307704 0.0229897765 0.4916596297 0.0266456219 0.0272265947 0.5017251273 0.0292592007 0.0355311024 0.4108084067 0.0175220876 0.0010742407 0.4050156850 0.0214025058 0.0088281847 0.3921336076 0.0150061526 0.0022917246 0.4290752961 0.0117194777 0.0243832312 0.3278604368 0.0078512630 0.0525337831 0.3268456640 0.0048814149 0.0477941754 0.3176070966 0.0153033162 0.0520789823 0.3914282315 0.0474216708 0.0165661399 0.1260169910 0.0325286677 0.0005544591 0.1343966799 0.0323348656 -0.0009464088 0.1488378564 0.0310271761 0.0008797283 0.1587394378 0.0330785174 -0.0002644213 0.1969068663 0.0307245367 0.0002773390 0.2770735568 0.0296589909 -0.0011119295 0.3342067035 0.0307535641 0.0015826464 0.3568699612 0.0207889404 0.0134662332 0.3582923479 0.0274878218 0.0161701018 0.3883988123 0.0222657751 -0.0005620414 0.4627377928 0.0244433768 0.0144399317 0.4972278865 0.0274273171 0.0200570796 0.4999680691 0.0214766471 0.0308244923 0.4427888700 0.0297692498 0.0284070849 0.4904733016 0.0171858496 0.0343118330 0.3739728743 0.0135071068 0.0119928389 0.3826124315 0.0162986520 0.0099120676 0.3821414023 0.0189503319 0.0175725176 0.4768954883 0.0105083377 0.0395250380 0.4320031879 0.0119931397 0.0280987086 0.3744051812 0.0201811488 0.0253187837 0.1161535156 0.0299183189 -0.0004642862 0.1291140194 0.0362087949 -0.0000782910 0.1637021736 0.0389723293 -0.0010013718 0.1791654340 0.0269103210 0.0000919190 0.2430712265 0.0263979962 -0.0001969303 0.3066836929 0.0262278583 -0.0006555950 0.3462617687 0.0230531377 0.0022840815 0.3635705129 0.0254381971 0.0061628401 0.3740942598 0.0167730907 0.0003698831 0.4751522207 0.0245663604 0.0199676325 0.4997886684 0.0330089095 0.0134214932 0.4845761388 0.0268311894 0.0304487422 0.5007383094 0.0243450057 0.0187670429 0.4831302917 0.0102814083 0.0366812065 0.3812368513 0.0248784792 0.0117759975 0.5019842496 0.0080385627 0.0413864028 0.3536029167 0.0242516348 0.0389110724 0.3690504530 0.0279861173 0.0218192090 0.3460576376 0.0143730962 0.0445670779 0.3990095471 0.0215124196 0.0121066161 0.3911987153 0.0249611465 0.0148354330 0.1033349597 0.0317031664 -0.0006884939 0.1433621911 0.0335642857 0.0006186197 0.1797663740 0.0320788184 -0.0000718132 0.1891725507 0.0318339600 -0.0006965171 0.2324706913 0.0285297682 0.0000842912 0.2735990698 0.0334412846 0.0040880011 0.3243741388 0.0286169474 0.0027031247 0.3569056541 0.0296074607 0.0138830734 0.3613807815 0.0379767530 0.0152266219 0.4043424634 0.0250422918 -0.0011511597 0.4989055198 0.0341518908 0.0006451405 0.4875425243 0.0301168140 0.0303229082 0.4935610403 0.0283481660 0.0305873222 0.4751761720 0.0270064285 0.0393837240 0.4362035942 0.0307141202 0.0245610164 0.3628217711 0.0267016759 0.0278827652 0.3854998075 0.0244914954 0.0049015104 0.3712193486 0.0287147386 0.0275786351 0.4723275159 0.0034828714 0.0369874618 0.3841861091 0.0274050717 0.0169467046 0.4631315121 0.0220982751 0.0389451931 0.1111876006 0.0330570279 -0.0001206196 0.1445930894 0.0391806942 -0.0007717866 0.1703484297 0.0394755868 -0.0004441861 0.1832865293 0.0381525937 0.0004768993 0.1932775718 0.0339003808 -0.0003295963 0.2650056351 0.0372805781 -0.0005963659 0.3275148026 0.0308952116 -0.0003708359 0.3668188468 0.0334339357 0.0000120693 0.3642627727 0.0342432903 0.0120468617 0.3816663298 0.0266607279 0.0021870838 0.4622446124 0.0285513147 0.0159048972 0.4784729368 0.0320630019 0.0300708433 0.4660579962 0.0411934556 0.0321834947 0.4987909555 0.0423423165 0.0393696538 0.4842037939 0.0222062836 0.0415131638 0.3668253101 0.0247564279 0.0223710135 0.3918412261 0.0240429797 0.0102295925 0.3326400390 0.0272902932 0.0487947485 0.3458535136 0.0273067556 0.0458200171 0.4044070414 0.0326959675 0.0133331249 0.4265216055 0.0251530132 0.0188353191 0.1070051472 0.0383374438 -0.0000030483 0.1371840530 0.0430569105 0.0009904986 0.1774857780 0.0360142602 0.0001155770 0.2129988014 0.0359416852 -0.0002439887 0.2211738850 0.0419689242 -0.0000865158 0.2820164210 0.0318042266 0.0001742115 0.3532999615 0.0371615116 -0.0002690883 0.3602342032 0.0398112778 0.0116914319 0.3730780448 0.0297857369 0.0063579752 0.4431974970 0.0345881148 0.0021817119 0.4527210114 0.0389024366 0.0153497841 0.4950629992 0.0469044796 0.0308218644 0.4761198104 0.0422878329 0.0356322819 0.4935263174 0.0285740793 0.0349263576 0.4218842958 0.0412498119 0.0196127463 0.3946864646 0.0410842225 0.0137570947 0.3602263941 0.0289183991 0.0265265823 0.3755210310 0.0259663779 0.0190643823 0.3146315707 0.0263205735 0.0491479642 0.4462350720 0.0288069513 0.0304004380 0.3511325750 0.0251505318 0.0464580250 0.1153116618 0.0419939729 0.0009819457 0.1466907615 0.0428510745 0.0019773144 0.1658680692 0.0442699215 -0.0001499432 0.1933310533 0.0384555836 0.0001870509 0.2060262979 0.0438127980 0.0004510509 0.2664676809 0.0479532417 -0.0003007652 0.3330722754 0.0358770722 0.0002728148 0.3613352293 0.0463951400 0.0061698465 0.3689553420 0.0410528491 0.0063688643 0.3690473245 0.0365778822 0.0085822003 0.4765967190 0.0376142423 0.0221886634 0.4853206948 0.0439761683 0.0263202015 0.4825584206 0.0450686427 0.0331135932 0.4202523884 0.0439041796 0.0201308543 0.4806289203 0.0446096325 0.0386090417 0.3901435683 0.0483087409 0.0132460288 0.3419653984 0.0382603594 0.0440970094 0.3146222919 0.0400555208 0.0550443570 0.4814878132 0.0274808145 0.0403360124 0.3591100084 0.0427689791 0.0406030714 0.3738271560 0.0503372047 0.0261955640 0.1129092671 0.0464367246 0.0000104735 0.1451646016 0.0531823030 -0.0013598169 0.1886967663 0.0479632564 -0.0001001113 0.1963646598 0.0433082024 0.0005196904 0.2109357312 0.0463480083 -0.0001442498 0.2866264745 0.0434005760 -0.0005506151 0.3496873979 0.0418628764 0.0019123021 0.3671165264 0.0416633133 0.0040643591 0.3734743159 0.0393547924 0.0053697870 0.3718079366 0.0415154046 0.0109340072 0.4623238912 0.0398212023 0.0235031104 0.4989047200 0.0506655015 0.0268148430 0.4777663033 0.0519883174 0.0332355522 0.4915478566 0.0497633692 0.0395967968 0.4143853506 0.0517617773 0.0151571418 0.4378351489 0.0519254193 0.0226031260 0.3957357013 0.0532266392 0.0140772235 0.3869723269 0.0348614282 0.0144548540 0.4070056742 0.0519523028 0.0154331566 0.4414776312 0.0607411395 0.0281480592 0.3398091357 0.0308812688 0.0535818269 0.1184873520 0.0526670170 -0.0001133363 0.1518042007 0.0540038889 0.0018319445 0.1735557270 0.0504222650 -0.0004359289 0.1959447264 0.0474506685 -0.0002021984 0.2007432851 0.0478491218 -0.0005579914 0.2875933418 0.0534377102 0.0001932791 0.3431991483 0.0469098154 0.0009746320 0.3612215160 0.0469439584 -0.0019122891 0.3727791899 0.0467975040 -0.0001900660 0.3791786550 0.0422684081 0.0027386950 0.4982629530 0.0428963614 0.0056309807 0.4917334215 0.0529932278 0.0256571728 0.4970885161 0.0583197996 0.0320208684 0.4719085210 0.0567879320 0.0038421373 0.4644231540 0.0569705561 0.0383366630 0.4351948450 0.0560371479 0.0233454821 0.3622739204 0.0612660640 0.0359978912 0.3748821531 0.0455138325 0.0243299143 0.3771175742 0.0538222462 0.0218020371 0.3196515367 0.0735544479 0.0599564657 0.3454999410 0.0598824637 0.0503468999 0.1289571910 0.0579882532 0.0005425208 0.1472102940 0.0576253371 0.0001753321 0.1789816849 0.0535814376 -0.0002265970 0.1936845555 0.0564254490 -0.0000046945 0.2186217000 0.0518023092 -0.0017966436 0.2710526833 0.0546611680 0.0004373554 0.3506203274 0.0537556001 0.0014980691 0.3560723933 0.0551486159 0.0131355110 0.3632913908 0.0514155524 0.0185849924 0.3890765895 0.0492138448 -0.0003503373 0.4882617180 0.0535323359 0.0233082722 0.4955431908 0.0613831132 0.0298208739 0.4950761581 0.0649771075 0.0332546333 0.4811759907 0.0611284776 0.0366496004 0.3767763079 0.0533548324 0.0129559990 0.4987057799 0.0567413207 0.0432250318 0.3707144251 0.0612366580 0.0276187607 0.3148571481 0.0582209273 0.0602714605 0.3858052427 0.0571062625 0.0157947038 0.3213943517 0.0666794788 0.0552619283 0.3629081698 0.0476788201 0.0392455615 0.1196239165 0.0628391476 0.0021737352 0.1543408657 0.0631956360 0.0008069332 0.1754277576 0.0585960960 0.0012228592 0.1884356095 0.0565737317 0.0003800853 0.2088406888 0.0599678119 -0.0005229740 0.2813589076 0.0586279270 0.0005193774 0.3460756721 0.0563992909 -0.0004858609 0.3585345537 0.0563902914 0.0074811638 0.3526928681 0.0543323307 0.0249437974 0.3807709946 0.0602405362 -0.0004285202 0.4826878196 0.0601680162 0.0266925501 0.502493791
[...]
      <PointData Scalars="smoothLength">
        <DataArray type="Float32" Name="smoothLength" format="ascii">
 0.0065000000 0.0065000000 0.0065000000 0.0065000000 0.0065000000 0.0065000000 0.0065000000 0.0065000000 0.0065000000 0.0065000000 0.0065000000 0.0065000000 0.0065000000 0.0065000000 0.0065000000 0.0065000000 0.0065000000 0.0065000000 0.0065000000 0.0065000000 0.0065000000 0.0065000000 0.0065000000 0.0065000000 0.0065000000 0.0065000000 0.0065000000 0.0065000000 0.0065000000 0.0065000000 0.0065000000 0.0065000000 0.0065000000 0.0065000000 0.0065000000 0.0065000000 0.0065000000 0.0065000000 0.0065000000 0.0065000000 0.0065000000 0.0065000000 0.0065000000 0.0065000000 0.0065000000 0.0065000000 0.0065000000 0.0065000000 0.0065000000 0.0065000000 0.0065000000 0.0065000000 0.0065000000 0.0065000000 0.0065000000 0.0065000000 0.0065000000 0.0065000000 0.0065000000 0.0065000000 0.0065000000 0.0065000000 0.0065000000 0.0065000000 0.0065000000 0.0065000000 0.0065000000 0.0065000000 0.0065000000 0.0065000000 0.0065000000 0.0065000000 0.0065000000 0.0065000000 0.0065000000 0.0065000000 0.0065000000 0.0065000000 0.0065000000 0.0065000000 0.0065000000 0.0065000000 0.0065000000 0.0065000000 0.0065000000 0.0065000000 0.0065000000 0.0065000000 0.0065000000 0.0065000000 0.0065000000 0.0065000000 0.0065000000 0.0065000000 0.0065000000 0.0065000000 0.0065000000 0.0065000000 0.0065000000 0.0065000000 0.0065000000 0.0065000000 0.0065000000 0.0065000000 0.0065000000 0.0065000000 0.0065000000 0.0065000000 0.0065000000 0.0065000000 0.0065000000 0.0065000000 0.0065000000 0.0065000000 0.0065000000 0.0065000000 0.0065000000 0.0065000000 0.0065000000 0.0065000000 0.0065000000 0.0065000000 0.0065000000 0.0065000000 0.0065000000 0.0065000000 0.0065000000 0.0065000000 0.0065000000 0.0065000000 0.0065000000 0.0065000000 0.0065000000 0.0065000000 0.0065000000 0.0065000000 0.0065000000 0.0065000000 0.0065000000 0.0065000000 0.0065000000 0.0065000000 0.0065000000 0.0065000000 0.0065000000 0.0065000000 0.0065000000 0.0065000000 0.0065000000 0.0065000000 0.0065000000 0.0065000000 0.0065000000 0.0065000000 0.0065000000 0.0065000000 0.0065000000 0.0065000000 0.0065000000 0.0065000000 0.0065000000 0.0065000000 0.0065000000 0.0065000000 0.0065000000 0.0065000000 0.0065000000 0.0065000000 0.0065000000 0.0065000000 0.0065000000 0.0065000000 0.0065000000 0.0065000000 0.0065000000 0.0065000000 0.0065000000 0.0065000000 0.0065000000 0.0065000000 0.0065000000 0.0065000000 0.0065000000 0.0065000000 0.0065000000 0.0065000000 0.0065000000 0.0065000000 0.0065000000 0.0065000000 0.0065000000 0.0065000000 0.0065000000 0.0065000000 0.0065000000 0.0065000000 0.0065000000 0.0065000000 0.0065000000 0.0065000000 0.0065000000 0.0065000000 0.0065000000 0.0065000000 0.0065000000 0.0065000000 0.0065000000 0.0065000000 0.0065000000 0.0065000000 0.0065000000 0.0065000000 0.0065000000 0.0065000000 0.0065000000 0.0065000000 0.0065000000 0.0065000000 0.0065000000 0.0065000000 0.0065000000 0.0065000000 0.0065000000 0.0065000000 0.0065000000 0.0065000000 0.0065000000 0.0065000000 0.0065000000 0.0065000000 0.0065000000 0.0065000000 0.0065000000 0.0065000000 0.0065000000 0.0065000000 0.0065000000 0.0065000000 0.0065000000 0.0065000000 0.0065000000 0.0065000000 0.0065000000 0.0065000000 0.0065000000 0.0065000000 0.0065000000 0.0065000000 0.0065000000 0.0065000000 0.0065000000 0.0065000000 0.0065000000 0.0065000000 0.0065000000 0.0065000000 0.0065000000 0.0065000000 0.0065000000 0.0065000000 0.0065000000 0.0065000000 0.0065000000 0.0065000000 0.0065000000 0.0065000000 0.0065000000 0.0065000000 0.0065000000 0.0065000000 0.0065000000 0.0065000000 0.0065000000 0.0065000000 0.0065000000 0.0065000000 0.0065000000 0.0065000000 0.0065000000 0.0065000000 0.0065000000 0.0065000000 0.0065000000 0.0065000000 0.0065000000 0.0065000000 0.0065000000 0.0065000000 0.0065000000 0.0065000000 0.0065000000 0.0065000000 0.0065000000 0.0065000000 0.0065000000 0.0065000000 0.0065000000 0.0065000000 0.0065000000 0.0065000000 0.0065000000 0.0065000000 0.0065000000 0.0065000000 0.0065000000 0.0065000000 0.0065000000 0.0065000000 0.0065000000 0.0065000000 0.0065000000 0.0065000000 0.0065000000 0.0065000000 0.0065000000 0.0065000000 0.0065000000 0.0065000000 0.0065000000 0.0065000000 0.0065000000 0.0065000000 0.0065000000 0.0065000000 0.0065000000 0.0065000000 0.0065000000 0.0065000000 0.0065000000 0.0065000000 0.0065000000 0.0065000000 0.0065000000 0.0065000000 0.0065000000 0.0065000000 0.0065000000 0.0065000000 0.0065000000 0.0065000000 0.0065000000 0.0065000000 0.0065000000 0.0065000000 0.0065000000 0.0065000000 0.0065000000 0.0065000000 0.0065000000 0.0065000000 0.0065000000 0.0065000000 0.0065000000 0.0065000000 0.0065000000 0.0065000000 0.0065000000 0.0065000000 0.0065000000 0.0065000000 0.0065000000 0.0065000000 0.0065000000 0.0065000000 0.0065000000 0.0065000000 0.0065000000 0.0065000000 0.0065000000 0.0065000000 0.0065000000 0.0065000000 0.0065000000 0.0065000000 0.0065000000 0.0065000000 0.0065000000 0.0065000000 0.0065000000 0.0065000000 0.0065000000 0.0065000000 0.0065000000 0.0065000000 0.0065000000 0.0065000000 0.0065000000 0.0065000000 0.0065000000 0.0065000000 0.0065000000 0.0065000000 0.0065000000 0.0065000000 0.0065000000 0.0065000000 0.0065000000 0.0065000000 0.0065000000 0.0065000000 0.0065000000 0.0065000000 0.0065000000 0.0065000000 0.0065000000 0.0065000000 0.0065000000 0.0065000000 0.0065000000 0.0065000000 0.0065000000 0.0065000000 0.0065000000 0.0065000000 0.0065000000 0.0065000000 0.0065000000 0.0065000000 0.0065000000 0.0065000000 0.0065000000 0.0065000000 0.0065000000 0.0065000000 0.0065000000 0.0065000000 0.0065000000 0.0065000000 0.0065000000 0.0065000000 0.0065000000 0.0065000000 0.0065000000 0.0065000000 0.0065000000 0.0065000000 0.0065000000 0.0065000000 0.0065000000 0.0065000000 0.0065000000 0.0065000000 0.0065000000 0.0065000000 0.0065000000 0.0065000000 0.0065000000 0.0065000000 0.0065000000 0.0065000000 0.0065000000 0.0065000000 0.0065000000 0.0065000000 0.0065000000 0.0065000000 0.0065000000 0.0065000000 0.0065000000 0.0065000000 0.0065000000 0.0065000000 0.0065000000 0.0065000000 0.0065000000 0.0065000000 0.0065000000 0.0065000000 0.0065000000 0.0065000000 0.0065000000 0.0065000000 0.0065000000 0.0065000000 0.0065000000 0.0065000000 0.0065000000 0.0065000000 0.0065000000 0.0065000000 0.0065000000 0.0065000000 0.0065000000 0.0065000000 0.0065000000 0.0065000000 0.0065000000 0.0065000000 0.0065000000 0.0065000000 0.0065000000 0.0065000000 0.0065000000 0.0065000000 0.0065000000 0.0065000000 0.0065000000 0.0065000000 0.0065000000 0.0065000000 0.0065000000 0.0065000000 0.0065000000 0.0065000000 0.0065000000 0.0065000000 0.0065000000 0.0065000000 0.0065000000 0.0065000000 0.0065000000 0.0065000000 0.0065000000 0.0065000000 0.0065000000 0.0065000000 0.0065000000 0.0065000000 0.0065000000 0.0065000000 0.0065000000 0.0065000000 0.0065000000 0.0065000000 0.0065000000 0.0065000000 0.0065000000 0.0065000000 0.0065000000 0.0065000000 0.0065000000 0.0065000000 0.0065000000 0.0065000000 0.0065000000 0.0065000000 0.0065000000 0.0065000000 0.0065000000 0.0065000000 0.0065000000 0.0065000000 0.0065000000 0.0065000000 0.0065000000 0.0065000000 0.0065000000 0.0065000000 0.0065000000 0.0065000000 0.0065000000 0.0065000000 0.0065000000 0.0065000000 0.0065000000 0.0065000000 0.0065000000 0.0065000000 0.0065000000 0.0065000000 0.0065000000 0.0065000000 0.0065000000 0.0065000000 0.0065000000 0.0065000000 0.0065000000 0.0065000000 0.0065000000 0.0065000000 0.0065000000 0.0065000000 0.0065000000 0.0065000000 0.0065000000 0.0065000000 0.0065000000 0.0065000000 0.0065000000 0.0065000000 0.0065000000 0.0065000000 0.0065000000 0.0065000000 0.0065000000 0.0065000000 0.0065000000 0.0065000000 0.0065000000 0.0065000000 0.0065000000 0.0065000000 0.0065000000 0.0065000000 0.0065000000 0.0065000000 0.0065000000 0.0065000000 0.0065000000 0.0065000000 0.0065000000 0.0065000000 0.0065000000 0.0065000000 0.0065000000 0.0065000000 0.0065000000 0.0065000000 0.0065000000 0.0065000000 0.0065000000 0.0065000000 0.0065000000 0.0065000000 0.0065000000 0.0065000000 0.0065000000 0.0065000000 0.0065000000 0.0065000000 0.0065000000 0.0065000000 0.0065000000 0.0065000000 0.0065000000 0.0065000000 0.0065000000 0.0065000000 0.0065000000 0.0065000000 0.0065000000 0.0065000000 0.0065000000 0.0065000000 0.0065000000 0.0065000000 0.0065000000 0.0065000000 0.0065000000 0.0065000000 0.0065000000 0.0065000000 0.0065000000 0.0065000000 0.0065000000 0.0065000000 0.0065000000 0.0065000000 0.0065000000 0.0065000000 0.0065000000 0.0065000000 0.0065000000 0.0065000000 0.0065000000 0.0065000000 0.0065000000 0.0065000000 0.0065000000 0.0065000000 0.0065000000 0.0065000000 0.0065000000 0.0065000000 0.0065000000 0.0065000000 0.0065000000 0.0065000000 0.0065000000 0.0065000000 0.0065000000 0.0065000000 0.0065000000 0.0065000000 0.0065000000 0.0065000000 0.0065000000 0.0065000000 0.0065000000 0.0065000000 0.0065000000 0.0065000000 0.0065000000 0.0065000000 0.0065000000 0.0065000000 0.0065000000 0.0065000000 0.0065000000 0.0065000000 0.0065000000 0.0065000000 0.0065000000 0.0065000000 0.0065000000 0.0065000000 0.0065000000 0.0065000000 0.0065000000 0.0065000000 0.0065000000 0.0065000000 0.0065000000 0.0065000000 0.0065000000 0.0065000000 0.0065000000 0.0065000000 0.0065000000 0.0065000000 0.0065000000 0.0065000000 0.0065000000 0.0065000000 0.0065000000 0.0065000000 0.0065000000 0.0065000000 0.0065000000 0.0065000000 0.0065000000 0.0065000000 0.0065000000 0.0065000000 0.0065000000 0.0065000000 0.0065000000 0.0065000000 0.0065000000 0.0065000000 0.0065000000 0.0065000000 0.0065000000 0.0065000000 0.0065000000 0.0065000000 0.0065000000 0.0065000000 0.0065000000 0.0065000000 0.0065000000 0.0065000000 0.0065000000 0.0065000000 0.0065000000 0.0065000000 0.0065000000 0.0065000000 0.0065000000 0.0065000000 0.0065000000 0.0065000000 0.0065000000 0.0065000000 0.0065000000 0.0065000000 0.0065000000 0.0065000000 0.0065000000 0.0065000000 0.0065000000 0.0065000000 0.0065000000 0.0065000000 0.0065000000 0.0065000000 0.0065000000 0.0065000000 0.0065000000 0.0065000000 0.0065000000 0.0065000000 0.0065000000 0.0065000000 0.0065000000 0.0065000000 0.0065000000 0.0065000000 0.0065000000 0.0065000000 0.0065000000 0.0065000000 0.0065000000 0.0065000000 0.0065000000 0.0065000000 0.0065000000 0.0065000000 0.0065000000 0.0065000000 0.0065000000 0.0065000000 0.0065000000 0.0065000000 0.0065000000 0.0065000000 0.0065000000 0.0065000000 0.0065000000 0.0065000000 0.0065000000 0.0065000000 0.0065000000 0.0065000000 0.0065000000 0.0065000000 0.0065000000 0.0065000000 0.0065000000 0.0065000000 0.0065000000 0.0065000000 0.0065000000 0.0065000000 0.0065000000 0.0065000000 0.0065000000 0.0065000000 0.0065000000 0.0065000000 0.0065000000 0.0065000000 0.0065000000 0.0065000000 0.0065000000 0.0065000000 0.0065000000 0.0065000000 0.0065000000 0.0065000000 0.0065000000 0.0065000000 0.0065000000 0.0065000000 0.0065000000 0.0065000000 0.0065000000 0.0065000000 0.0065000000 0.0065000000 0.0065000000 0.0065000000 0.0065000000 0.0065000000 0.0065000000 0.0065000000 0.0065000000 0.0065000000 0.0065000000 0.0065000000 0.0065000000 0.0065000000 0.0065000000 0.0065000000 0.0065000000 0.0065000000 0.0065000000 0.0065000000 0.0065000000 0.0065000000 0.0065000000 0.0065000000 0.0065000000 0.0065000000 0.0065000000 0.0065000000 0.0065000000 0.0065000000 0.0065000000 0.0065000000 0.0065000000 0.0065000000 0.0065000000 0.0065000000 0.0065000000 0.0065000000 0.0065000000 0.0065000000 0.0065000000 0.0065000000 0.0065000000 0.0065000000 0.0065000000 0.0065000000 0.0065000000 0.0065000000 0.0065000000 0.0065000000 0.0065000000 0.0065000000 0.0065000000 0.0065000000 0.0065000000 0.0065000000 0.0065000000 0.0065000000 0.0065000000 0.0065000000 0.0065000000 0.0065000000 0.0065000000 0.0065000000 0.0065000000 0.0065000000 0.0065000000 0.0065000000 0.0065000000 0.0065000000 0.0065000000 0.0065000000 0.0065000000 0.0065000000 0.0065000000 0.0065000000 0.0065000000 0.0065000000 0.0065000000 0.0065000000 0.0065000000 0.0065000000 0.0065000000 0.0065000000 0.0065000000 0.0065000000 0.0065000000 0.0065000000 0.0065000000 0.0065000000 0.0065000000 0.0065000000 0.0065000000 0.0065000000 0.0065000000 0.0065000000 0.0065000000 0.0065000000 0.0065000000 0.0065000000 0.0065000000 0.0065000000 0.0065000000 0.0065000000 0.0065000000 0.0065000000 0.0065000000 0.0065000000 0.0065000000 0.0065000000 0.0065000000 0.0065000000 0.0065000000 0.0065000000 0.0065000000 0.0065000000 0.0065000000 0.0065000000 0.0065000000 0.0065000000 0.0065000000 0.0065000000 0.0065000000 0.0065000000 0.0065000000 0.0065000000 0.0065000000 0.0065000000 0.0065000000 0.0065000000 0.0065000000 0.0065000000 0.0065000000 0.0065000000 0.0065000000 0.0065000000 0.0065000000 0.0065000000 0.0065000000 0.0065000000 0.0065000000 0.0065000000 0.0065000000 0.0065000000 0.0065000000 0.0065000000 0.0065000000 0.0065000000 0.0065000000 0.0065000000 0.0065000000 0.0065000000 0.0065000000 0.0065000000 0.0065000000 0.0065000000 0.0065000000 0.0065000000 0.0065000000 0.0065000000 0.0065000000 0.0065000000 0.0065000000 0.0065000000 0.0065000000 0.0065000000 0.0065000000 0.0065000000 0.0065000000 0.0065000000 0.0065000000 0.0065000000 0.0065000000 0.0065000000 0.0065000000 0.0065000000 0.0065000000 0.0065000000 0.0065000000 0.0065000000 0.0065000000 0.0065000000 0.0065000000 0.0065000000 0.0065000000 0.0065000000 0.0065000000 0.0065000000 0.0065000000 0.0065000000 0.0065000000 0.0065000000 0.0065000000 0.0065000000 0.0065000000 0.0065000000 0.0065000000 0.0065000000 0.0065000000 0.0065000000 0.0065000000 0.0065000000 0.0065000000 0.0065000000 0.0065000000 0.0065000000 0.0065000000 0.0065000000 0.0065000000 0.0065000000 0.0065000000 0.0065000000 0.0065000000 0.0065000000 0.0065000000 0.0065000000 0.0065000000 0.0065000000 0.0065000000 0.0065000000 0.0065000000 0.0065000000 0.0065000000 0.0065000000 0.0065000000 0.0065000000 0.0065000000 0.0065000000 0.0065000000 0.0065000000 0.0065000000 0.0065000000 0.0065000000 0.0065000000 0.0065000000 0.0065000000 0.0065000000 0.0065000000 0.0065000000 0.0065000000 0.0065000000 0.0065000000 0.0065000000 0.0065000000 0.0065000000 0.0065000000 0.0065000000 0.0065000000 0.0065000000 0.0065000000 0.0065000000 0.0065000000 0.0065000000 0.0065000000 0.0065000000 0.0065000000 0.0065000000 0.0065000000 0.0065000000 0.0065000000 0.0065000000 0.0065000000 0.0065000000 0.0065000000 0.0065000000 0.0065000000 0.0065000000 0.0065000000 0.0065000000 0.0065000000 0.0065000000 0.0065000000 0.0065000000 0.0065000000 0.0065000000 0.0065000000 0.0065000000 0.0065000000 0.0065000000 0.0065000000 0.0065000000 0.0065000000 0.0065000000 0.0065000000 0.0065000000 0.0065000000 0.0065000000 0.0065000000 0.0065000000 0.0065000000 0.0065000000 0.0065000000 0.0065000000 0.0065000000 0.0065000000 0.0065000000 0.0065000000 0.0065000000 0.0065000000 0.0065000000 0.0065000000 0.0065000000 0.0065000000 0.0065000000 0.0065000000 0.0065000000 0.0065000000 0.0065000000 0.0065000000 0.0065000000 0.0065000000 0.0065000000 0.0065000000 0.0065000000 0.0065000000 0.0065000000 0.0065000000 0.0065000000 0.0065000000 0.0065000000 0.0065000000 0.0065000000 0.0065000000 0.0065000000 0.0065000000 0.0065000000 0.0065000000 0.0065000000 0.0065000000 0.0065000000 0.0065000000 0.0065000000 0.0065000000 0.0065000000 0.0065000000 0.0065000000 0.0065000000 0.0065000000 0.0065000000 0.0065000000 0.0065000000 0.0065000000 0.0065000000 0.0065000000 0.0065000000 0.0065000000 0.0065000000 0.0065000000 0.0065000000 0.0065000000 0.0065000000 0.0065000000 0.0065000000 0.0065000000 0.0065000000 0.0065000000 0.0065000000 0.0065000000 0.0065000000 0.0065000000 0.0065000000 0.0065000000 0.0065000000 0.0065000000 0.0065000000 0.0065000000 0.0065000000 0.0065000000 0.0065000000 0.0065000000 0.0065000000 0.0065000000 0.0065000000 0.0065000000 0.0065000000 0.0065000000 0.0065000000 0.0065000000 0.0065000000 0.0065000000 0.0065000000 0.0065000000 0.0065000000 0.0065000000 0.0065000000 0.0065000000 0.0065000000 0.0065000000 0.0065000000 0.0065000000 0.0065000000 0.0065000000 0.0065000000 0.0065000000 0.0065000000 0.0065000000 0.0065000000 0.0065000000 0.0065000000 0.0065000000 0.0065000000 0.0065000000 0.0065000000 0.0065000000 0.0065000000 0.0065000000 0.0065000000 0.0065000000 0.0065000000 0.0065000000 0.0065000000 0.0065000000 0.0065000000 0.0065000000 0.0065000000 0.0065000000 0.0065000000 0.0065000000 0.0065000000 0.0065000000 0.0065000000 0.0065000000 0.0065000000 0.0065000000 0.0065000000 0.0065000000 0.0065000000 0.0065000000 0.0065000000 0.0065000000 0.0065000000 0.0065000000 0.0065000000 0.0065000000 0.0065000000 0.0065000000 0.0065000000 0.0065000000 0.0065000000 0.0065000000 0.0065000000 0.0065000000 0.0065000000 0.0065000000 0.0065000000 0.0065000000 0.0065000000 0.0065000000 0.0065000000 0.0065000000 0.0065000000 0.0065000000 0.0065000000 0.0065000000 0.0065000000 0.0065000000 0.0065000000 0.0065000000 0.0065000000 0.0065000000 0.0065000000 0.0065000000 0.0065000000 0.0065000000 0.0065000000 0.0065000000 0.0065000000 0.0065000000 0.0065000000 0.0065000000 0.0065000000 0.0065000000 0.0065000000 0.0065000000 0.0065000000 0.0065000000 0.0065000000 0.0065000000 0.0065000000 0.0065000000 0.0065000000 0.0065000000 0.0065000000 0.0065000000 0.0065000000 0.0065000000 0.0065000000 0.0065000000 0.0065000000 0.0065000000 0.0065000000 0.0065000000 0.0065000000 0.0065000000 0.0065000000 0.0065000000 0.0065000000 0.0065000000 0.0065000000 0.0065000000 0.0065000000 0.0065000000 0.0065000000 0.0065000000 0.0065000000 0.0065000000 0.0065000000 0.0065000000 0.0065000000 0.0065000000 0.0065000000 0.0065000000 0.0065000000 0.0065000000 0.0065000000 0.0065000000 0.0065000000 0.0065000000 0.0065000000 0.0065000000 0.0065000000 0.0065000000 0.0065000000 0.0065000000 0.0065000000 0.0065000000 0.0065000000 0.0065000000 0.0065000000 0.0065000000 0.0065000000 0.0065000000 0.0065000000 0.0065000000 0.0065000000 0.0065000000 0.0065000000 0.0065000000 0.0065000000 0.0065000000 0.0065000000 0.0065000000 0.0065000000 0.0065000000 0.0065000000 0.0065000000 0.0065000000 0.0065000000 0.0065000000 0.0065000000 0.0065000000 0.0065000000 0.0065000000 0.0065000000 0.0065000000 0.0065000000 0.0065000000 0.0065000000 0.0065000000 0.0065000000 0.0065000000 0.0065000000 0.0065000000 0.0065000000 0.0065000000 0.0065000000 0.0065000000 0.0065000000 0.0065000000 0.0065000000 0.0065000000 0.0065000000 0.0065000000 0.0065000000 0.0065000000 0.0065000000 0.0065000000 0.0065000000 0.0065000000 0.0065000000 0.0065000000 0.0065000000 0.0065000000 0.0065000000 0.0065000000 0.0065000000 0.0065000000 0.0065000000 0.0065000000 0.0065000000 0.0065000000 0.0065000000 0.0065000000 0.0065000000 0.0065000000 0.0065000000 0.0065000000 0.0065000000 0.0065000000 0.0065000000 0.0065000000 0.0065000000 0.0065000000 0.0065000000 0.0065000000 0.0065000000 0.0065000000 0.0065000000 0.0065000000 0.0065000000 0.0065000000 0.0065000000 0.0065000000 0.0065000000 0.0065000000 0.0065000000 0.0065000000 0.0065000000 0.0065000000 0.0065000000 0.0065000000 0.0065000000 0.0065000000 0.0065000000 0.0065000000 0.0065000000 0.0065000000 0.0065000000 0.0065000000 0.0065000000 0.0065000000 0.0065000000 0.0065000000 0.0065000000 0.0065000000 0.0065000000 0.0065000000 0.0065000000 0.0065000000 0.0065000000 0.0065000000 0.0065000000 0.0065000000 0.0065000000 0.0065000000 0.0065000000 0.0065000000 0.0065000000 0.0065000000 0.0065000000 0.0065000000 0.0065000000 0.0065000000 0.0065000000 0.0065000000 0.0065000000 0.0065000000 0.0065000000 0.0065000000 0.0065000000 0.0065000000 0.0065000000 0.0065000000 0.0065000000 0.0065000000 0.0065000000 0.0065000000 0.0065000000 0.0065000000 0.0065000000 0.0065000000 0.0065000000 0.0065000000 0.0065000000 0.0065000000 0.0065000000 0.0065000000 0.0065000000 0.0065000000 0.0065000000 0.0065000000 0.0065000000 0.0065000000 0.0065000000 0.0065000000 0.0065000000 0.0065000000 0.0065000000 0.0065000000 0.0065000000 0.0065000000 0.006500000