<?xml version="1.0"?>
<VTKFile type="UnstructuredGrid" version="0.1" byte_order="LittleEndian">
  <UnstructuredGrid>
    <FieldData>
      <DataArray type="Float32" Name="TIME"  NumberOfTuples="1" format="ascii"> 1.1492084735 </DataArray>
      <DataArray type="Int32"   Name="STEP"  NumberOfTuples="1" format="ascii"> 15410 </DataArray>
    </FieldData>
    <Piece NumberOfPoints="18081" NumberOfCells="18081">
      <Points>
        <DataArray type="Float32" NumberOfComponents="3" format="ascii">
 0.0064638770 -0.0018063625 0.0026148213 0.0248062564 -0.0011834679 0.0012340102 0.0496847348 0.0036824637 -0.0006364768 0.0649446892 0.0392660613 0.0151103702 0.0524063399 0.0087184522 0.0006617691 0.1554197858 -0.0001021953 0.0088373950 0.3446094591 -0.0007169220 0.0011566733 0.3732601233 0.0015255377 0.0174902779 0.4017328836 0.0024450327 0.0147187637 0.3573084133 0.0081548211 0.0209016338 0.4356236624 0.0087552660 0.0126442128 0.4476372660 0.0019472344 0.0039033662 0.4326618337 0.0139100576 0.0234224184 0.4195584736 0.0400258248 0.0236418721 0.3875866116 0.0294442493 0.0205968858 0.3619889976 0.0191255350 0.0219647418 0.4080056663 0.0037557211 0.0099943556 0.2998341902 0.0274351863 0.0171020108 0.1929744436 0.0327471645 0.0228364857 0.1979473041 0.0471767641 0.0149356751 0.4450126513 0.0046575171 0.0102540477 0.0325815329 0.0071546132 0.0034260994 0.0462081660 0.0016028886 0.0026751766 0.0598606171 0.0282698734 -0.0005199168 0.0790669443 0.0316880964 0.0050767159 0.1661240091 0.0065562244 0.0098384191 0.3594342537 -0.0010885918 0.0124342537 0.3853264049 0.0018701601 0.0127666511 0.3733815000 0.0078610501 0.0117123494 0.3188610228 0.0015508509 0.0235736353 0.4209819764 0.0007296354 0.0155355423 0.4168931198 0.0372007407 0.0274819612 0.4890018039 0.0141542355 0.0052576992 0.4193559295 0.0311282199 0.0281147144 0.4106329572 -0.0005512705 0.0251904029 0.3907738382 0.0217180456 0.0205618117 0.3884751910 0.0090901809 0.0201266767 0.3889301445 0.0198989117 0.0206737141 0.1486524867 0.0332534724 0.0228786164 0.1400606175 0.0222047473 0.0221221746 0.1512278746 0.0403122079 0.0242420366 0.2725913052 0.0380764448 0.0128996086 0.0242624161 0.0120126009 -0.0010913279 0.0383013620 0.0022143159 0.0000476657 0.0545664689 0.0285635475 0.0008276772 0.0542426935 0.0460455649 0.0204558608 0.1901696679 0.0114851386 0.0032056301 0.2885480131 0.0054290278 0.0018785501 0.3803588137 0.0020062552 -0.0008978312 0.4100366781 0.0108374820 -0.0006036776 0.4251203527 0.0063975392 0.0009309387 0.3860971554 0.0137015415 0.0087982262 0.4147745679 0.0420556197 0.0297434373 0.4083608816 0.0392146486 0.0152333926 0.4309350022 0.0486292567 0.0164093441 0.4179312643 0.0232686797 0.0098589343 0.3676802457 0.0240722867 0.0161166449 0.3942332010 0.0136217828 0.0175727138 0.4200161307 0.0130484794 0.0268422523 0.0972850975 0.0193817744 0.0193557718 0.4219894277 0.0460596122 0.0312312389 0.5007539815 0.0144273520 0.0036546554 0.4325553017 0.0392159164 0.0098633131 0.0443573521 0.0234133946 0.0006333324 0.0363826467 0.0145024302 0.0014827449 0.1015286464 0.0437923481 -0.0001398334 0.0657560953 0.0250447300 0.0000324706 0.2114752761 0.0009114051 -0.0001931331 0.3454932975 0.0058240921 0.0073086886 0.3689276107 0.0099035497 0.0062766458 0.2734592242 0.0028135021 0.0163275838 0.1902561852 0.0075345060 0.0211864141 0.4225582734 0.0056865224 0.0107727802 0.4226649823 0.0456275549 0.0122011204 0.4207559675 0.0494655750 0.0180244536 0.4255238187 0.0164250068 0.0176130567 0.3400835384 0.0086251433 0.0175461236 0.2997699084 0.0119468986 0.0203067564 0.4058599493 0.0441388805 0.0275667842 0.2206707002 0.0266672098 0.0131527832 0.1122705615 0.0246196039 0.0195842708 0.0613854690 0.0003442760 0.0009413914 0.1029612895 0.0167791080 0.0198555609 0.4306260035 0.0567402941 0.0292085004 0.0311234181 0.0230000965 0.0016264519 0.0563261316 0.0332778540 0.0008633707 0.1171921170 0.0452647118 -0.0002072555 0.1736096900 0.0093182500 0.0002848682 0.1818630186 0.0123633041 0.0037584916 0.3489793648 -0.0009581695 0.0100556881 0.3960577542 0.0106513554 -0.0013024573 0.3487162112 0.0095138225 0.0141050590 0.2541307195 -0.0020014968 0.0139403917 0.3515903762 0.0155600862 0.0166948184 0.4162128385 0.0322418356 0.0033879312 0.4258225468 0.0393363946 0.0130370806 0.4141247235 0.0522828960 0.0322369666 0.3970312635 0.0483389294 0.0231469413 0.3183931749 0.0279603508 0.0169337224 0.3428714200 0.0478872368 0.0175236502 0.1822138834 0.0326731502 0.0235107229 0.1820362267 0.0234849763 0.0227251271 0.3210486498 0.0475292448 0.0154946525 0.1825534418 0.0507368368 0.0239849007 0.4173423400 0.0535101759 0.0287238612 0.0446716951 0.0329186189 -0.0011087763 0.0512131592 0.0303999894 0.0002949330 0.1134732733 0.0434692825 0.0001215015 0.1180006574 0.0016152530 0.0002327298 0.2268823068 0.0054193350 0.0005218037 0.3874902943 0.0092783519 -0.0012204194 0.3224194586 0.0160712121 0.0129218836 0.2926291608 0.0115654279 0.0187011483 0.2749717109 0.0130885955 0.0167195206 0.3584429767 0.0143968473 0.0117730439 0.4167957932 0.0344674434 0.0085622985 0.4002925905 0.0499171506 0.0081891313 0.4205339815 0.0548065976 0.0132590735 0.4264385077 0.0629739124 0.0340761070 0.3656806390 0.0509958772 0.0215973324 0.4118799872 0.0437910339 0.0127953981 0.2413774691 0.0239984831 0.0108949590 0.0446104188 0.0066957410 0.0135459429 0.2396377380 0.0365593304 0.0086682256 0.1792085974 0.0482352885 0.0242580882 0.4378321322 0.0384555420 0.0124024757 0.0449509168 0.0386740873 0.0003692739 0.0689103077 0.0394396177 0.0026138893 0.1126312070 0.0508385607 0.0028923563 0.1845944168 0.0137593980 -0.0000654368 0.3211009256 0.0037048538 0.0038757769 0.3602005569 0.0140706998 -0.0003758760 0.3393427548 0.0241700912 0.0078125735 0.3766847589 0.0126780274 0.0061868563 0.2040349320 0.0113270146 0.0136836310 0.3502078946 0.0248327308 0.0102852273 0.4002982248 0.0486514435 0.0151676807 0.4106741148 0.0322169606 0.0148757885 0.3779430266 0.0625325917 0.0167381793 0.4298092437 0.0688568414 0.0003417099 0.3483352308 0.0283219256 0.0153352363 0.3521177270 0.0615336454 0.0177073039 0.1127170763 0.0184999214 0.0104104181 0.0560353831 0.0092114472 0.0166956863 0.0867731841 0.0196795435 0.0062494326 0.0597682858 0.0080357682 0.0093688185 0.2923775601 0.0391654948 0.0151491423 0.0241031656 0.0320570189 0.0000306028 0.0725065557 0.0432638738 0.0019028490 0.1173893901 0.0560866641 -0.0004425233 0.1710838268 0.0196790644 -0.0005234510 0.2081727057 0.0074314014 0.0007448416 0.3438144564 0.0074181093 -0.0008507974 0.3645216724 0.0313163508 -0.0006549257 0.2661606807 0.0260749306 0.0134331535 0.3709405280 0.0261657845 0.0069957577 0.2119327240 0.0113223218 0.0051448531 0.4029786481 0.0459856960 0.0140748374 0.4740573343 0.0706085166 0.0010741897 0.3596995374 0.0493090082 0.0156747629 0.4127759456 0.0557425099 0.0064849308 0.3551561534 0.0333808038 0.0148793995 0.2842185297 0.0255668866 0.0143134169 0.2851622884 0.0483382774 0.0114977916 0.1250280642 0.0210494093 0.0151170202 0.2868948365 0.0376910560 0.0123985766 0.2320824532 0.0422127085 0.0090586489 0.0727608356 0.0130634867 0.0200119423 0.0366887248 0.0337088930 -0.0006034163 0.0574987923 0.0444946636 0.0065396715 0.1270359177 0.0557060003 -0.0005651119 0.1676365956 0.0166663226 0.0029736542 0.3210174303 0.0123980613 0.0003220641 0.3548054275 0.0162433060 -0.0010086724 0.3497660671 0.0287926472 -0.0005028058 0.3232122903 0.0276987001 0.0091820960 0.1773142393 0.0388224070 0.0232438626 0.1357441360 0.0185312686 0.0103275587 0.3987519607 0.0531658161 -0.0012085496 0.4106683978 0.0507206252 0.0093342953 0.4033660385 0.0536889176 0.0181933661 0.4269627313 0.0405686444 0.0222623218 0.3756759010 0.0643028322 0.0247727748 0.4236213280 0.0562472171 0.0256579346 0.2370568396 0.0556146405 0.0081784239 0.1391244847 0.0199328058 0.0068803582 0.1151867554 0.0417507224 0.0202544002 0.1538158779 0.0487103974 0.0250288430 0.0864799336 0.0264756033 0.0197947708 0.0266209851 0.0362243489 0.0001427291 0.0496884090 0.0470782781 0.0001293558 0.0825268955 0.0535707868 -0.0002794928 0.1691293593 0.0245435471 0.0000160228 0.3076666710 0.0157474470 0.0052156631 0.3352757766 0.0137136682 0.0081450817 0.3443621768 0.0244424971 0.0040955703 0.3637276242 0.0287934673 0.0052999378 0.3510919227 0.0315655451 0.0064727588 0.3017039736 0.0365688051 0.0119969828 0.3917920829 0.0384490425 0.0115626574 0.4935399102 0.0636723882 0.0080036164 0.3905939039 0.0634265934 0.0271185979 0.3702531682 0.0238153942 0.0110284431 0.3046452453 0.0504056051 0.0126835266 0.3006277004 0.0399359143 0.0096424498 0.2710099661 0.0605815618 0.0097348842 0.1758565935 0.0625870755 0.0234234363 0.3831994124 0.0719261912 0.0280159381 0.1322829192 0.0532141838 0.0265848565 0.4904788320 0.0601672026 0.0028551954 0.0256335067 0.0421011477 0.0003267507 0.0494064475 0.0505651046 0.0005911528 0.1085714005 0.0555533770 0.0035872222 0.1809295929 0.0265935247 0.0027472310 0.2101420580 0.0235986651 0.0042356788 0.3446323844 0.0182721113 0.0024431840 0.3508008773 0.0321481996 0.0032734942 0.3768547603 0.0373135644 -0.0001393072 0.1443892953 0.0420493387 0.0222926913 0.2076124685 0.0388505473 0.0004702193 0.4892063786 0.0433430201 0.0014252308 0.5005945357 0.0657628401 -0.0011062409 0.3728478890 0.0680258356 0.0149006369 0.4781818620 0.0591983363 0.0058191481 0.4020954334 0.0711328756 0.0285692150 0.2350022466 0.0579196660 0.0063507514 0.2287461510 0.0439351382 0.0081804892 0.1389331556 0.0595564473 0.0110226713 0.2681056353 0.0644666778 0.0088010454 0.1618752670 0.0645251575 0.0232524768 0.4548895415 0.0644534526 0.2029143891 0.0410159404 0.0428177881 -0.0013297126 0.0468980847 0.0548588104 0.0035879178 0.1064167674 0.0628406198 0.0022781125 0.1659168691 0.0277772582 -0.0007782846 0.1697736440 0.0376039973 0.0114172377 0.3301197186 0.0370662484 -0.0010986424 0.3543089112 0.0333352281 0.0012542066 0.2367069373 0.0334419120 -0.0007894788 0.3858600514 0.0388767857 0.0003414984 0.3456390828 0.0418875603 0.0094046285 0.4621200836 0.0400446243 0.0024640523 0.4201369695 0.077051299
[...]
      <PointData Scalars="smoothLength">
        <DataArray type="Float32" Name="smoothLength" format="ascii">
 0.0065000000 0.0065000000 0.0065000000 0.0065000000 0.0065000000 0.0065000000 0.0065000000 0.0065000000 0.0065000000 0.0065000000 0.0065000000 0.0065000000 0.0065000000 0.0065000000 0.0065000000 0.0065000000 0.0065000000 0.0065000000 0.0065000000 0.0065000000 0.0065000000 0.0065000000 0.0065000000 0.0065000000 0.0065000000 0.0065000000 0.0065000000 0.0065000000 0.0065000000 0.0065000000 0.0065000000 0.0065000000 0.0065000000 0.0065000000 0.0065000000 0.0065000000 0.0065000000 0.0065000000 0.0065000000 0.0065000000 0.0065000000 0.0065000000 0.0065000000 0.0065000000 0.0065000000 0.0065000000 0.0065000000 0.0065000000 0.0065000000 0.0065000000 0.0065000000 0.0065000000 0.0065000000 0.0065000000 0.0065000000 0.0065000000 0.0065000000 0.0065000000 0.0065000000 0.0065000000 0.0065000000 0.0065000000 0.0065000000 0.0065000000 0.0065000000 0.0065000000 0.0065000000 0.0065000000 0.0065000000 0.0065000000 0.0065000000 0.0065000000 0.0065000000 0.0065000000 0.0065000000 0.0065000000 0.0065000000 0.0065000000 0.0065000000 0.0065000000 0.0065000000 0.0065000000 0.0065000000 0.0065000000 0.0065000000 0.0065000000 0.0065000000 0.0065000000 0.0065000000 0.0065000000 0.0065000000 0.0065000000 0.0065000000 0.0065000000 0.0065000000 0.0065000000 0.0065000000 0.0065000000 0.0065000000 0.0065000000 0.0065000000 0.0065000000 0.0065000000 0.0065000000 0.0065000000 0.0065000000 0.0065000000 0.0065000000 0.0065000000 0.0065000000 0.0065000000 0.0065000000 0.0065000000 0.0065000000 0.0065000000 0.0065000000 0.0065000000 0.0065000000 0.0065000000 0.0065000000 0.0065000000 0.0065000000 0.0065000000 0.0065000000 0.0065000000 0.0065000000 0.0065000000 0.0065000000 0.0065000000 0.0065000000 0.0065000000 0.0065000000 0.0065000000 0.0065000000 0.0065000000 0.0065000000 0.0065000000 0.0065000000 0.0065000000 0.0065000000 0.0065000000 0.0065000000 0.0065000000 0.0065000000 0.0065000000 0.0065000000 0.0065000000 0.0065000000 0.0065000000 0.0065000000 0.0065000000 0.0065000000 0.0065000000 0.0065000000 0.0065000000 0.0065000000 0.0065000000 0.0065000000 0.0065000000 0.0065000000 0.0065000000 0.0065000000 0.0065000000 0.0065000000 0.0065000000 0.0065000000 0.0065000000 0.0065000000 0.0065000000 0.0065000000 0.0065000000 0.0065000000 0.0065000000 0.0065000000 0.0065000000 0.0065000000 0.0065000000 0.0065000000 0.0065000000 0.0065000000 0.0065000000 0.0065000000 0.0065000000 0.0065000000 0.0065000000 0.0065000000 0.0065000000 0.0065000000 0.0065000000 0.0065000000 0.0065000000 0.0065000000 0.0065000000 0.0065000000 0.0065000000 0.0065000000 0.0065000000 0.0065000000 0.0065000000 0.0065000000 0.0065000000 0.0065000000 0.0065000000 0.0065000000 0.0065000000 0.0065000000 0.0065000000 0.0065000000 0.0065000000 0.0065000000 0.0065000000 0.0065000000 0.0065000000 0.0065000000 0.0065000000 0.0065000000 0.0065000000 0.0065000000 0.0065000000 0.0065000000 0.0065000000 0.0065000000 0.0065000000 0.0065000000 0.0065000000 0.0065000000 0.0065000000 0.0065000000 0.0065000000 0.0065000000 0.0065000000 0.0065000000 0.0065000000 0.0065000000 0.0065000000 0.0065000000 0.0065000000 0.0065000000 0.0065000000 0.0065000000 0.0065000000 0.0065000000 0.0065000000 0.0065000000 0.0065000000 0.0065000000 0.0065000000 0.0065000000 0.0065000000 0.0065000000 0.0065000000 0.0065000000 0.0065000000 0.0065000000 0.0065000000 0.0065000000 0.0065000000 0.0065000000 0.0065000000 0.0065000000 0.0065000000 0.0065000000 0.0065000000 0.0065000000 0.0065000000 0.0065000000 0.0065000000 0.0065000000 0.0065000000 0.0065000000 0.0065000000 0.0065000000 0.0065000000 0.0065000000 0.0065000000 0.0065000000 0.0065000000 0.0065000000 0.0065000000 0.0065000000 0.0065000000 0.0065000000 0.0065000000 0.0065000000 0.0065000000 0.0065000000 0.0065000000 0.0065000000 0.0065000000 0.0065000000 0.0065000000 0.0065000000 0.0065000000 0.0065000000 0.0065000000 0.0065000000 0.0065000000 0.0065000000 0.0065000000 0.0065000000 0.0065000000 0.0065000000 0.0065000000 0.0065000000 0.0065000000 0.0065000000 0.0065000000 0.0065000000 0.0065000000 0.0065000000 0.0065000000 0.0065000000 0.0065000000 0.0065000000 0.0065000000 0.0065000000 0.0065000000 0.0065000000 0.0065000000 0.0065000000 0.0065000000 0.0065000000 0.0065000000 0.0065000000 0.0065000000 0.0065000000 0.0065000000 0.0065000000 0.0065000000 0.0065000000 0.0065000000 0.0065000000 0.0065000000 0.0065000000 0.0065000000 0.0065000000 0.0065000000 0.0065000000 0.0065000000 0.0065000000 0.0065000000 0.0065000000 0.0065000000 0.0065000000 0.0065000000 0.0065000000 0.0065000000 0.0065000000 0.0065000000 0.0065000000 0.0065000000 0.0065000000 0.0065000000 0.0065000000 0.0065000000 0.0065000000 0.0065000000 0.0065000000 0.0065000000 0.0065000000 0.0065000000 0.0065000000 0.0065000000 0.0065000000 0.0065000000 0.0065000000 0.0065000000 0.0065000000 0.0065000000 0.0065000000 0.0065000000 0.0065000000 0.0065000000 0.0065000000 0.0065000000 0.0065000000 0.0065000000 0.0065000000 0.0065000000 0.0065000000 0.0065000000 0.0065000000 0.0065000000 0.0065000000 0.0065000000 0.0065000000 0.0065000000 0.0065000000 0.0065000000 0.0065000000 0.0065000000 0.0065000000 0.0065000000 0.0065000000 0.0065000000 0.0065000000 0.0065000000 0.0065000000 0.0065000000 0.0065000000 0.0065000000 0.0065000000 0.0065000000 0.0065000000 0.0065000000 0.0065000000 0.0065000000 0.0065000000 0.0065000000 0.0065000000 0.0065000000 0.0065000000 0.0065000000 0.0065000000 0.0065000000 0.0065000000 0.0065000000 0.0065000000 0.0065000000 0.0065000000 0.0065000000 0.0065000000 0.0065000000 0.0065000000 0.0065000000 0.0065000000 0.0065000000 0.0065000000 0.0065000000 0.0065000000 0.0065000000 0.0065000000 0.0065000000 0.0065000000 0.0065000000 0.0065000000 0.0065000000 0.0065000000 0.0065000000 0.0065000000 0.0065000000 0.0065000000 0.0065000000 0.0065000000 0.0065000000 0.0065000000 0.0065000000 0.0065000000 0.0065000000 0.0065000000 0.0065000000 0.0065000000 0.0065000000 0.0065000000 0.0065000000 0.0065000000 0.0065000000 0.0065000000 0.0065000000 0.0065000000 0.0065000000 0.0065000000 0.0065000000 0.0065000000 0.0065000000 0.0065000000 0.0065000000 0.0065000000 0.0065000000 0.0065000000 0.0065000000 0.0065000000 0.0065000000 0.0065000000 0.0065000000 0.0065000000 0.0065000000 0.0065000000 0.0065000000 0.0065000000 0.0065000000 0.0065000000 0.0065000000 0.0065000000 0.0065000000 0.0065000000 0.0065000000 0.0065000000 0.0065000000 0.0065000000 0.0065000000 0.0065000000 0.0065000000 0.0065000000 0.0065000000 0.0065000000 0.0065000000 0.0065000000 0.0065000000 0.0065000000 0.0065000000 0.0065000000 0.0065000000 0.0065000000 0.0065000000 0.0065000000 0.0065000000 0.0065000000 0.0065000000 0.0065000000 0.0065000000 0.0065000000 0.0065000000 0.0065000000 0.0065000000 0.0065000000 0.0065000000 0.0065000000 0.0065000000 0.0065000000 0.0065000000 0.0065000000 0.0065000000 0.0065000000 0.0065000000 0.0065000000 0.0065000000 0.0065000000 0.0065000000 0.0065000000 0.0065000000 0.0065000000 0.0065000000 0.0065000000 0.0065000000 0.0065000000 0.0065000000 0.0065000000 0.0065000000 0.0065000000 0.0065000000 0.0065000000 0.0065000000 0.0065000000 0.0065000000 0.0065000000 0.0065000000 0.0065000000 0.0065000000 0.0065000000 0.0065000000 0.0065000000 0.0065000000 0.0065000000 0.0065000000 0.0065000000 0.0065000000 0.0065000000 0.0065000000 0.0065000000 0.0065000000 0.0065000000 0.0065000000 0.0065000000 0.0065000000 0.0065000000 0.0065000000 0.0065000000 0.0065000000 0.0065000000 0.0065000000 0.0065000000 0.0065000000 0.0065000000 0.0065000000 0.0065000000 0.0065000000 0.0065000000 0.0065000000 0.0065000000 0.0065000000 0.0065000000 0.0065000000 0.0065000000 0.0065000000 0.0065000000 0.0065000000 0.0065000000 0.0065000000 0.0065000000 0.0065000000 0.0065000000 0.0065000000 0.0065000000 0.0065000000 0.0065000000 0.0065000000 0.0065000000 0.0065000000 0.0065000000 0.0065000000 0.0065000000 0.0065000000 0.0065000000 0.0065000000 0.0065000000 0.0065000000 0.0065000000 0.0065000000 0.0065000000 0.0065000000 0.0065000000 0.0065000000 0.0065000000 0.0065000000 0.0065000000 0.0065000000 0.0065000000 0.0065000000 0.0065000000 0.0065000000 0.0065000000 0.0065000000 0.0065000000 0.0065000000 0.0065000000 0.0065000000 0.0065000000 0.0065000000 0.0065000000 0.0065000000 0.0065000000 0.0065000000 0.0065000000 0.0065000000 0.0065000000 0.0065000000 0.0065000000 0.0065000000 0.0065000000 0.0065000000 0.0065000000 0.0065000000 0.0065000000 0.0065000000 0.0065000000 0.0065000000 0.0065000000 0.0065000000 0.0065000000 0.0065000000 0.0065000000 0.0065000000 0.0065000000 0.0065000000 0.0065000000 0.0065000000 0.0065000000 0.0065000000 0.0065000000 0.0065000000 0.0065000000 0.0065000000 0.0065000000 0.0065000000 0.0065000000 0.0065000000 0.0065000000 0.0065000000 0.0065000000 0.0065000000 0.0065000000 0.0065000000 0.0065000000 0.0065000000 0.0065000000 0.0065000000 0.0065000000 0.0065000000 0.0065000000 0.0065000000 0.0065000000 0.0065000000 0.0065000000 0.0065000000 0.0065000000 0.0065000000 0.0065000000 0.0065000000 0.0065000000 0.0065000000 0.0065000000 0.0065000000 0.0065000000 0.0065000000 0.0065000000 0.0065000000 0.0065000000 0.0065000000 0.0065000000 0.0065000000 0.0065000000 0.0065000000 0.0065000000 0.0065000000 0.0065000000 0.0065000000 0.0065000000 0.0065000000 0.0065000000 0.0065000000 0.0065000000 0.0065000000 0.0065000000 0.0065000000 0.0065000000 0.0065000000 0.0065000000 0.0065000000 0.0065000000 0.0065000000 0.0065000000 0.0065000000 0.0065000000 0.0065000000 0.0065000000 0.0065000000 0.0065000000 0.0065000000 0.0065000000 0.0065000000 0.0065000000 0.0065000000 0.0065000000 0.0065000000 0.0065000000 0.0065000000 0.0065000000 0.0065000000 0.0065000000 0.0065000000 0.0065000000 0.0065000000 0.0065000000 0.0065000000 0.0065000000 0.0065000000 0.0065000000 0.0065000000 0.0065000000 0.0065000000 0.0065000000 0.0065000000 0.0065000000 0.0065000000 0.0065000000 0.0065000000 0.0065000000 0.0065000000 0.0065000000 0.0065000000 0.0065000000 0.0065000000 0.0065000000 0.0065000000 0.0065000000 0.0065000000 0.0065000000 0.0065000000 0.0065000000 0.0065000000 0.0065000000 0.0065000000 0.0065000000 0.0065000000 0.0065000000 0.0065000000 0.0065000000 0.0065000000 0.0065000000 0.0065000000 0.0065000000 0.0065000000 0.0065000000 0.0065000000 0.0065000000 0.0065000000 0.0065000000 0.0065000000 0.0065000000 0.0065000000 0.0065000000 0.0065000000 0.0065000000 0.0065000000 0.0065000000 0.0065000000 0.0065000000 0.0065000000 0.0065000000 0.0065000000 0.0065000000 0.0065000000 0.0065000000 0.0065000000 0.0065000000 0.0065000000 0.0065000000 0.0065000000 0.0065000000 0.0065000000 0.0065000000 0.0065000000 0.0065000000 0.0065000000 0.0065000000 0.0065000000 0.0065000000 0.0065000000 0.0065000000 0.0065000000 0.0065000000 0.0065000000 0.0065000000 0.0065000000 0.0065000000 0.0065000000 0.0065000000 0.0065000000 0.0065000000 0.0065000000 0.0065000000 0.0065000000 0.0065000000 0.0065000000 0.0065000000 0.0065000000 0.0065000000 0.0065000000 0.0065000000 0.0065000000 0.0065000000 0.0065000000 0.0065000000 0.0065000000 0.0065000000 0.0065000000 0.0065000000 0.0065000000 0.0065000000 0.0065000000 0.0065000000 0.0065000000 0.0065000000 0.0065000000 0.0065000000 0.0065000000 0.0065000000 0.0065000000 0.0065000000 0.0065000000 0.0065000000 0.0065000000 0.0065000000 0.0065000000 0.0065000000 0.0065000000 0.0065000000 0.0065000000 0.0065000000 0.0065000000 0.0065000000 0.0065000000 0.0065000000 0.0065000000 0.0065000000 0.0065000000 0.0065000000 0.0065000000 0.0065000000 0.0065000000 0.0065000000 0.0065000000 0.0065000000 0.0065000000 0.0065000000 0.0065000000 0.0065000000 0.0065000000 0.0065000000 0.0065000000 0.0065000000 0.0065000000 0.0065000000 0.0065000000 0.0065000000 0.0065000000 0.0065000000 0.0065000000 0.0065000000 0.0065000000 0.0065000000 0.0065000000 0.0065000000 0.0065000000 0.0065000000 0.0065000000 0.0065000000 0.0065000000 0.0065000000 0.0065000000 0.0065000000 0.0065000000 0.0065000000 0.0065000000 0.0065000000 0.0065000000 0.0065000000 0.0065000000 0.0065000000 0.0065000000 0.0065000000 0.0065000000 0.0065000000 0.0065000000 0.0065000000 0.0065000000 0.0065000000 0.0065000000 0.0065000000 0.0065000000 0.0065000000 0.0065000000 0.0065000000 0.0065000000 0.0065000000 0.0065000000 0.0065000000 0.0065000000 0.0065000000 0.0065000000 0.0065000000 0.0065000000 0.0065000000 0.0065000000 0.0065000000 0.0065000000 0.0065000000 0.0065000000 0.0065000000 0.0065000000 0.0065000000 0.0065000000 0.0065000000 0.0065000000 0.0065000000 0.0065000000 0.0065000000 0.0065000000 0.0065000000 0.0065000000 0.0065000000 0.0065000000 0.0065000000 0.0065000000 0.0065000000 0.0065000000 0.0065000000 0.0065000000 0.0065000000 0.0065000000 0.0065000000 0.0065000000 0.0065000000 0.0065000000 0.0065000000 0.0065000000 0.0065000000 0.0065000000 0.0065000000 0.0065000000 0.0065000000 0.0065000000 0.0065000000 0.0065000000 0.0065000000 0.0065000000 0.0065000000 0.0065000000 0.0065000000 0.0065000000 0.0065000000 0.0065000000 0.0065000000 0.0065000000 0.0065000000 0.0065000000 0.0065000000 0.0065000000 0.0065000000 0.0065000000 0.0065000000 0.0065000000 0.0065000000 0.0065000000 0.0065000000 0.0065000000 0.0065000000 0.0065000000 0.0065000000 0.0065000000 0.0065000000 0.0065000000 0.0065000000 0.0065000000 0.0065000000 0.0065000000 0.0065000000 0.0065000000 0.0065000000 0.0065000000 0.0065000000 0.0065000000 0.0065000000 0.0065000000 0.0065000000 0.0065000000 0.0065000000 0.0065000000 0.0065000000 0.0065000000 0.0065000000 0.0065000000 0.0065000000 0.0065000000 0.0065000000 0.0065000000 0.0065000000 0.0065000000 0.0065000000 0.0065000000 0.0065000000 0.0065000000 0.0065000000 0.0065000000 0.0065000000 0.0065000000 0.0065000000 0.0065000000 0.0065000000 0.0065000000 0.0065000000 0.0065000000 0.0065000000 0.0065000000 0.0065000000 0.0065000000 0.0065000000 0.0065000000 0.0065000000 0.0065000000 0.0065000000 0.0065000000 0.0065000000 0.0065000000 0.0065000000 0.0065000000 0.0065000000 0.0065000000 0.0065000000 0.0065000000 0.0065000000 0.0065000000 0.0065000000 0.0065000000 0.0065000000 0.0065000000 0.0065000000 0.0065000000 0.0065000000 0.0065000000 0.0065000000 0.0065000000 0.0065000000 0.0065000000 0.0065000000 0.0065000000 0.0065000000 0.0065000000 0.0065000000 0.0065000000 0.0065000000 0.0065000000 0.0065000000 0.0065000000 0.0065000000 0.0065000000 0.0065000000 0.0065000000 0.0065000000 0.0065000000 0.0065000000 0.0065000000 0.0065000000 0.0065000000 0.0065000000 0.0065000000 0.0065000000 0.0065000000 0.0065000000 0.0065000000 0.0065000000 0.0065000000 0.0065000000 0.0065000000 0.0065000000 0.0065000000 0.0065000000 0.0065000000 0.0065000000 0.0065000000 0.0065000000 0.0065000000 0.0065000000 0.0065000000 0.0065000000 0.0065000000 0.0065000000 0.0065000000 0.0065000000 0.0065000000 0.0065000000 0.0065000000 0.0065000000 0.0065000000 0.0065000000 0.0065000000 0.0065000000 0.0065000000 0.0065000000 0.0065000000 0.0065000000 0.0065000000 0.0065000000 0.0065000000 0.0065000000 0.0065000000 0.0065000000 0.0065000000 0.0065000000 0.0065000000 0.0065000000 0.0065000000 0.0065000000 0.0065000000 0.0065000000 0.0065000000 0.0065000000 0.0065000000 0.0065000000 0.0065000000 0.0065000000 0.0065000000 0.0065000000 0.0065000000 0.0065000000 0.0065000000 0.0065000000 0.0065000000 0.0065000000 0.0065000000 0.0065000000 0.0065000000 0.0065000000 0.0065000000 0.0065000000 0.0065000000 0.0065000000 0.0065000000 0.0065000000 0.0065000000 0.0065000000 0.0065000000 0.0065000000 0.0065000000 0.0065000000 0.0065000000 0.0065000000 0.0065000000 0.0065000000 0.0065000000 0.0065000000 0.0065000000 0.0065000000 0.0065000000 0.0065000000 0.0065000000 0.0065000000 0.0065000000 0.0065000000 0.0065000000 0.0065000000 0.0065000000 0.0065000000 0.0065000000 0.0065000000 0.0065000000 0.0065000000 0.0065000000 0.0065000000 0.0065000000 0.0065000000 0.0065000000 0.0065000000 0.0065000000 0.0065000000 0.0065000000 0.0065000000 0.0065000000 0.0065000000 0.0065000000 0.0065000000 0.0065000000 0.0065000000 0.0065000000 0.0065000000 0.0065000000 0.0065000000 0.0065000000 0.0065000000 0.0065000000 0.0065000000 0.0065000000 0.0065000000 0.0065000000 0.0065000000 0.0065000000 0.0065000000 0.0065000000 0.0065000000 0.0065000000 0.0065000000 0.0065000000 0.0065000000 0.0065000000 0.0065000000 0.0065000000 0.0065000000 0.0065000000 0.0065000000 0.0065000000 0.0065000000 0.0065000000 0.0065000000 0.0065000000 0.0065000000 0.0065000000 0.0065000000 0.0065000000 0.0065000000 0.0065000000 0.0065000000 0.0065000000 0.0065000000 0.0065000000 0.0065000000 0.0065000000 0.0065000000 0.0065000000 0.0065000000 0.0065000000 0.0065000000 0.0065000000 0.0065000000 0.0065000000 0.0065000000 0.0065000000 0.0065000000 0.0065000000 0.0065000000 0.0065000000 0.0065000000 0.0065000000 0.0065000000 0.0065000000 0.0065000000 0.0065000000 0.0065000000 0.0065000000 0.0065000000 0.0065000000 0.0065000000 0.0065000000 0.0065000000 0.0065000000 0.0065000000 0.0065000000 0.0065000000 0.0065000000 0.0065000000 0.0065000000 0.0065000000 0.0065000000 0.0065000000 0.0065000000 0.0065000000 0.0065000000 0.0065000000 0.0065000000 0.0065000000 0.0065000000 0.0065000000 0.0065000000 0.0065000000 0.0065000000 0.0065000000 0.0065000000 0.0065000000 0.0065000000 0.0065000000 0.0065000000 0.0065000000 0.0065000000 0.0065000000 0.0065000000 0.0065000000 0.0065000000 0.0065000000 0.0065000000 0.0065000000 0.0065000000 0.0065000000 0.0065000000 0.0065000000 0.0065000000 0.0065000000 0.0065000000 0.0065000000 0.0065000000 0.0065000000 0.0065000000 0.0065000000 0.0065000000 0.0065000000 0.0065000000 0.0065000000 0.0065000000 0.0065000000 0.0065000000 0.0065000000 0.0065000000 0.0065000000 0.0065000000 0.0065000000 0.0065000000 0.0065000000 0.0065000000 0.0065000000 0.0065000000 0.0065000000 0.0065000000 0.0065000000 0.0065000000 0.0065000000 0.0065000000 0.0065000000 0.0065000000 0.0065000000 0.0065000000 0.0065000000 0.0065000000 0.0065000000 0.0065000000 0.0065000000 0.0065000000 0.0065000000 0.0065000000 0.0065000000 0.0065000000 0.0065000000 0.0065000000 0.0065000000 0.0065000000 0.0065000000 0.0065000000 0.0065000000 0.0065000000 0.0065000000 0.0065000000 0.0065000000 0.0065000000 0.0065000000 0.0065000000 0.0065000000 0.0065000000 0.0065000000 0.0065000000 0.0065000000 0.0065000000 0.0065000000 0.0065000000 0.0065000000 0.0065000000 0.0065000000 0.0065000000 0.0065000000 0.0065000000 0.0065000000 0.0065000000 0.0065000000 0.0065000000 0.0065000000 0.0065000000 0.0065000000 0.0065000000 0.0065000000 0.0065000000 0.0065000000 0.0065000000 0.0065000000 0.0065000000 0.0065000000 0.0065000000 0.0065000000 0.0065000000 0.0065000000 0.0065000000 0.0065000000 0.0065000000 0.0065000000 0.0065000000 0.0065000000 0.0065000000 0.0065000000 0.0065000000 0.0065000000 0.0065000000 0.0065000000 0.0065000000 0.0065000000 0.0065000000 0.0065000000 0.0065000000 0.0065000000 0.0065000000 0.0065000000 0.0065000000 0.0065000000 0.0065000000 0.0065000000 0.0065000000 0.0065000000 0.0065000000 0.0065000000 0.0065000000 0.0065000000 0.0065000000 0.0065000000 0.0065000000 0.0065000000 0.0065000000 0.0065000000 0.0065000000 0.0065000000 0.0065000000 0.0065000000 0.0065000000 0.0065000000 0.0065000000 0.0065000000 0.0065000000 0.0065000000 0.0065000000 0.0065000000 0.0065000000 0.0065000000 0.0065000000 0.0065000000 0.0065000000 0.0065000000 0.0065000000 0.0065000000 0.0065000000 0.0065000000 0.0065000000 0.0065000000 0.0065000000 0.0065000000 0.0065000000 0.0065000000 0.0065000000 0.0065000000 0.0065000000 0.0065000000 0.0065000000 0.0065000000 0.0065000000 0.0065000000 0.0065000000 0.0065000000 0.0065000000 0.0065000000 0.0065000000 0.0065000000 0.0065000000 0.0065000000 0.0065000000 0.0065000000 0.0065000000 0.0065000000 0.0065000000 0.0065000000 0.0065000000 0.0065000000 0.0065000000 0.0065000000 0.0065000000 0.0065000000 0.0065000000 0.0065000000 0.0065000000 0.0065000000 0.0065000000 0.0065000000 0.0065000000 0.0065000000 0.0065000000 0.0065000000 0.0065000000 0.006500000