<?xml version="1.0"?>
<VTKFile type="UnstructuredGrid" version="0.1" byte_order="LittleEndian">
  <UnstructuredGrid>
    <FieldData>
      <DataArray type="Float32" Name="TIME"  NumberOfTuples="1" format="ascii"> 2.5982104618 </DataArray>
      <DataArray type="Int32"   Name="STEP"  NumberOfTuples="1" format="ascii"> 34840 </DataArray>
    </FieldData>
    <Piece NumberOfPoints="18081" NumberOfCells="18081">
      <Points>
        <DataArray type="Float32" NumberOfComponents="3" format="ascii">
 0.0524640748 0.0912216312 0.0090191070 0.0064688515 0.0878222364 0.0009945579 0.0938991026 0.0669764850 0.0038490802 0.0901338797 0.0034890281 0.0079331183 0.1004158237 0.0340822214 0.0041978675 0.0141102550 0.0017309065 0.0167559932 0.4765623333 0.0105381033 0.0144351122 0.4182845508 0.0324694805 0.0095788068 0.4783059480 0.0005645006 0.0010279686 0.4360749270 0.0294669464 0.0092650985 0.4659168024 0.0245072433 0.0172781510 0.4988436949 0.0241836740 0.0095582829 0.4896450954 0.0127285599 0.0187260217 0.4025941568 0.0278166888 0.0222943691 0.4823734368 0.0524420928 0.0197617268 0.4486186610 0.0153034027 0.0321488186 0.4988175796 0.0121896366 0.0136396732 0.3750878319 0.0825618096 0.0286113788 0.4322968856 0.0173999942 0.0327119158 0.2374482414 0.0050868563 0.0064519049 0.4831925038 0.0025129783 0.0315570151 0.0843958463 0.0974903857 0.0003535956 0.0134150057 0.0450769251 0.0172795883 0.0678422977 0.0484694945 0.0036975875 0.0743771587 0.0466012116 0.0003949743 0.0229048627 0.0138878357 0.0061632066 0.4017635469 0.0004576698 0.0071255806 0.4831786031 0.0001714679 0.0079241048 0.4317236387 0.0188286655 0.0050621438 0.4915740142 0.0161892779 0.0257631895 0.4654531895 0.0065266481 0.0008982460 0.4387486818 0.0653725951 0.0199793592 0.4961683718 0.0218401532 0.0234134765 0.4309058700 0.0600378590 0.0142391564 0.4918549105 0.0194796280 0.0108833268 0.3967846648 0.0299115261 0.0229820595 0.4627403153 0.0237334778 0.0143717149 0.4287015416 0.0229537252 0.0301143634 0.0636410853 0.0403117422 0.0143475357 0.0178512981 0.0171047630 0.0169886633 0.3783363171 0.0209891478 0.0162182941 0.3291476786 0.0908332844 0.0293110526 0.1417655174 0.0294260593 0.0055058334 0.0007290863 0.0799322076 0.0013390615 0.0694652017 0.0713739126 0.0007849692 0.2553644278 0.0775427409 0.0178500081 0.3741708706 0.0054118732 0.0120389264 0.4178502426 0.0350806275 0.0159851727 0.4699508265 0.0081449705 0.0001297918 0.4990232623 0.0651886879 0.0064974569 0.4984918946 0.0707276459 0.0183420623 0.4495245858 0.0031251695 0.0067841436 0.3813206286 0.0557375647 0.0282307613 0.3955361405 0.0655429444 0.0024976172 0.4844415824 0.0505973217 0.0257607482 0.4795150091 0.0525534349 0.0068199427 0.3983900353 0.0198666095 0.0014695875 0.4233230796 0.0381428454 -0.0000209905 0.4434589762 0.0179708499 0.0267215531 0.0155167913 0.0622215707 0.0092451155 0.4499437581 0.0518308991 0.0298600692 0.4947153962 0.0555491443 0.0065581315 0.4355780971 0.0598704029 0.0195381773 0.0764859860 0.0580459516 0.0002545832 0.0967274950 0.0152146667 0.0106411165 0.0679229402 0.0761397937 0.0043138274 0.0842399356 0.0446668616 0.0070714567 0.3875287786 0.0106742063 0.0098242471 0.4218612528 0.0107107587 0.0033520919 0.4275887914 0.0013673374 0.0075584127 0.3515150708 0.0229840181 0.0203200577 0.3148467480 0.0033184385 0.0248183085 0.4885977273 0.0317521846 0.0006398020 0.4328494970 0.0762786409 0.0239726373 0.3803200419 0.0625315339 0.0103919169 0.4577195419 0.0223768149 0.0136290978 0.3794439408 0.0097461528 0.0063801955 0.3284167490 0.0492171732 0.0084257517 0.3990842622 0.0349952505 0.0265807480 0.3081084087 0.0209380011 0.0283929024 0.0178097823 0.0675520883 0.0109940741 0.0433679706 0.0997887152 0.0050607438 0.0448759320 0.0443045609 0.0201327124 0.4593661389 0.0917055445 0.0066860562 0.1844772845 0.0353063051 0.0046111172 0.2169481316 0.0223825930 0.0004619052 0.0309946705 0.0500958623 0.0007790391 0.3166537135 -0.0007815729 0.0138825977 0.3669216446 0.0139302022 -0.0002970864 0.4223743655 0.0001071694 0.0166596188 0.4566459944 0.0434490644 0.0007574245 0.4120680373 0.0086642365 0.0090996537 0.3917083489 0.0078555562 0.0076512808 0.3860045878 0.0288016847 0.0115891113 0.4681532389 0.0744683471 0.0009468905 0.4016986665 0.0713642743 0.0201350368 0.3750878474 0.0488796311 0.0187468145 0.3980193498 0.0491502631 0.0030539533 0.3040730911 0.0468127355 0.0210631181 0.4170082329 0.0551072336 0.0288998185 0.4677995748 0.0071427137 0.0300472404 0.4031309158 0.0303025838 0.0281564183 0.3538988439 0.0633549318 0.0267246131 0.4076805060 0.0074859267 0.0253377273 0.3721515116 0.0612831980 0.0282211325 0.1750587511 0.0248587260 0.0084099753 0.0799532819 0.0478111630 0.0000459465 0.0694150800 0.0662501745 0.0001425992 0.0059132626 0.0425344386 0.0063737086 0.4105065484 0.0096077388 0.0134458420 0.4680005181 0.0234414640 0.0006073550 0.3637754873 0.0380796938 0.0107691049 0.3867142756 0.0232870002 0.0229968393 0.2823575486 0.0512129084 0.0321559328 0.3851644554 0.0272069899 0.0035187944 0.4113208542 0.0446654589 0.0091411478 0.3791871783 0.0586391933 0.0085127861 0.3974534867 0.0666986029 0.0164926408 0.3596643408 0.0883235318 0.0268194563 0.4221608735 0.0473648216 0.0217767095 0.4033533008 0.0597484768 0.0211536991 0.2973554084 0.0084855989 0.0239389184 0.0975128683 0.0795090570 0.0069300335 0.3272768982 0.0044435724 0.0116822194 0.3879901332 0.0152072115 0.0256011410 0.4830962863 0.0617985574 0.0099423879 0.1812321998 0.0323372005 0.0001828166 0.2345537904 0.0097800857 0.0061837563 0.0625457545 0.0475773429 0.0002245199 0.3612115351 0.0163016971 0.0011795317 0.3764965372 0.0158364416 0.0077714019 0.3986232544 -0.0002040456 0.0034575798 0.3465263613 0.0284019058 0.0043128355 0.4321701139 0.0266123530 0.0003887661 0.3475171880 0.0220834448 0.0086289845 0.3562611101 0.0228552175 -0.0007481823 0.3757780452 0.0522029172 0.0042312483 0.4140847056 0.0530681669 0.0055939768 0.3351771079 0.0589774316 0.0216205841 0.4325093663 0.0720220389 0.0051505708 0.3092371389 0.0311845368 0.0021897305 0.4547686434 0.0656066024 0.0244624927 0.0085572545 0.0557396030 0.0080419064 0.1323748694 0.0421003753 0.0090092033 0.0779976409 0.0337400292 0.0123119665 0.0121241295 0.0865835453 0.0153453328 0.3432809367 0.1218541984 0.0290086795 0.1713103320 0.0216689635 0.0066972705 0.1112187625 0.0234556394 -0.0000560800 0.1385993453 0.0175144830 0.0001076936 0.3639219154 0.0002530038 -0.0002033791 0.3667624354 0.0145384750 0.0142354563 0.3760693560 0.0009270803 0.0133903001 0.3846977214 0.0228750798 0.0004600550 0.2721784807 0.0402232187 0.0332896262 0.4063701285 0.0305395946 -0.0002289816 0.3613751535 0.0326704651 0.0036410745 0.4116636113 0.0806574349 0.0002372017 0.4519626551 0.0579489674 0.0155481571 0.3248938465 0.0648767949 0.0103572421 0.3860044973 0.0334243955 0.0224393693 0.3441695410 0.0482432343 0.0190596230 0.2885536391 0.0360335738 0.0296937093 0.2784692208 0.0643413045 0.0337661285 0.0274722467 0.0643274206 0.0112565117 0.2946574513 0.0249397406 0.0120499518 0.2806129603 0.0446325337 0.0265438407 0.0680962860 0.0505545603 0.0175464106 0.0997790509 0.0177794735 0.0064628380 0.2370631582 0.0422178173 0.0038063972 0.1508506995 0.0210369860 0.0000658424 0.3559907481 -0.0004932056 0.0166257826 0.4150829083 -0.0002078918 0.0104388052 0.4056666074 0.0000988195 0.0093356944 0.3683418838 0.0082751160 0.0071226230 0.3229840528 0.0291443917 0.0062564415 0.0609411186 0.0082574316 0.0055042500 0.0070278241 0.0460133283 0.0002421049 0.3860681297 0.0636043977 0.0099042639 0.4171746853 0.0792277450 0.0001995120 0.3710789707 0.0585141259 0.0004361452 0.4113431325 0.0660453657 0.0159732417 0.4428849310 0.0581658134 0.0262588442 0.4599137740 0.0898720539 0.0212601575 0.4583418019 0.0778512317 0.0338928019 0.0174212745 0.0392611078 0.0064708138 0.0732662118 0.0296644724 0.0113421944 0.4463785501 0.0369789549 0.0110801997 0.0708272011 0.0478736588 0.0123603260 0.2012116189 0.0372901654 0.0068280034 0.1896791610 0.0584590293 0.0036957106 0.2012772666 0.0422751822 0.0002398963 0.3548557724 -0.0004018057 0.0035150480 0.3866181326 0.0146523891 0.0118994103 0.3761818465 0.0008929550 -0.0005026476 0.3801565018 0.0170346261 0.0043388091 0.3756667475 0.0321613878 0.0001724786 0.3774605903 0.0205766852 0.0105593545 0.2959417699 0.0154366099 0.0013628573 0.3964598956 0.0573039220 0.0005126823 0.4626524546 0.0436401282 0.0170863488 0.3953571790 0.0500190275 0.0134554433 0.4134780044 0.0133101563 0.0096642050 0.3292091161 0.0883281558 0.0254223594 0.2582897368 0.0078428370 0.0004805977 0.3624866750 0.0671258133 0.0283149284 0.2661098552 0.0918305179 0.0318155534 0.4246615294 0.0658062749 0.0207441983 0.0338883163 0.0154422921 0.0181071523 0.4573437408 0.0658546167 0.0120336587 0.1860612291 0.0306875120 0.0001149449 0.1409146851 0.0409291489 -0.0000636338 0.0698300763 0.0371812874 0.0002382077 0.3396197671 0.0268704354 0.0032989024 0.3154317277 0.0307359503 0.0138674063 0.3979159483 0.0062492501 0.0201694772 0.3400928802 0.0337178708 0.0037347909 0.4084840638 0.0769121041 0.0009666006 0.0596966117 0.0512184197 0.0092615491 0.3592127212 0.0058385895 -0.0003156194 0.4418984029 0.0708506101 0.0005216712 0.4826800164 0.0883574014 0.0004319596 0.3254102229 0.0724342930 0.0041245398 0.4837422492 0.0656181811 0.0067109056 0.3803151182 0.0599179461 0.0192832299 0.2684429263 0.0704750172 0.0136137009 0.2744716055 0.0690271503 0.0226649554 0.0757340091 0.0223591945 0.0003856863 0.2834901188 0.0700920590 0.0061631646 0.3866278274 0.1079027157 0.0236568765 0.4558666982 0.0705812733 0.0095906870 0.1953677823 0.0401231300 0.0045322464 0.1854006159 0.0628692419 0.0044178679 0.2157937156 0.0171293764 -0.0001729365 0.3395545980 -0.0006819858 0.0191569482 0.0411254653 0.0404317843 0.0063451619 0.3295619267 0.0354942160 0.0039212406 0.3597637570 0.0268220592 0.0027218926 0.3202859690 0.0305820193 0.0103413538 0.4295097353 0.0479213552 0.0001167354 0.3330126813 0.0506854650 0.0044434077 0.4551653996 0.0445090615 0.0167221729 0.4571544411 0.0851182027 0.0192841227 0.4619
[...]
      <PointData Scalars="smoothLength">
        <DataArray type="Float32" Name="smoothLength" format="ascii">
 0.0065000000 0.0065000000 0.0065000000 0.0065000000 0.0065000000 0.0065000000 0.0065000000 0.0065000000 0.0065000000 0.0065000000 0.0065000000 0.0065000000 0.0065000000 0.0065000000 0.0065000000 0.0065000000 0.0065000000 0.0065000000 0.0065000000 0.0065000000 0.0065000000 0.0065000000 0.0065000000 0.0065000000 0.0065000000 0.0065000000 0.0065000000 0.0065000000 0.0065000000 0.0065000000 0.0065000000 0.0065000000 0.0065000000 0.0065000000 0.0065000000 0.0065000000 0.0065000000 0.0065000000 0.0065000000 0.0065000000 0.0065000000 0.0065000000 0.0065000000 0.0065000000 0.0065000000 0.0065000000 0.0065000000 0.0065000000 0.0065000000 0.0065000000 0.0065000000 0.0065000000 0.0065000000 0.0065000000 0.0065000000 0.0065000000 0.0065000000 0.0065000000 0.0065000000 0.0065000000 0.0065000000 0.0065000000 0.0065000000 0.0065000000 0.0065000000 0.0065000000 0.0065000000 0.0065000000 0.0065000000 0.0065000000 0.0065000000 0.0065000000 0.0065000000 0.0065000000 0.0065000000 0.0065000000 0.0065000000 0.0065000000 0.0065000000 0.0065000000 0.0065000000 0.0065000000 0.0065000000 0.0065000000 0.0065000000 0.0065000000 0.0065000000 0.0065000000 0.0065000000 0.0065000000 0.0065000000 0.0065000000 0.0065000000 0.0065000000 0.0065000000 0.0065000000 0.0065000000 0.0065000000 0.0065000000 0.0065000000 0.0065000000 0.0065000000 0.0065000000 0.0065000000 0.0065000000 0.0065000000 0.0065000000 0.0065000000 0.0065000000 0.0065000000 0.0065000000 0.0065000000 0.0065000000 0.0065000000 0.0065000000 0.0065000000 0.0065000000 0.0065000000 0.0065000000 0.0065000000 0.0065000000 0.0065000000 0.0065000000 0.0065000000 0.0065000000 0.0065000000 0.0065000000 0.0065000000 0.0065000000 0.0065000000 0.0065000000 0.0065000000 0.0065000000 0.0065000000 0.0065000000 0.0065000000 0.0065000000 0.0065000000 0.0065000000 0.0065000000 0.0065000000 0.0065000000 0.0065000000 0.0065000000 0.0065000000 0.0065000000 0.0065000000 0.0065000000 0.0065000000 0.0065000000 0.0065000000 0.0065000000 0.0065000000 0.0065000000 0.0065000000 0.0065000000 0.0065000000 0.0065000000 0.0065000000 0.0065000000 0.0065000000 0.0065000000 0.0065000000 0.0065000000 0.0065000000 0.0065000000 0.0065000000 0.0065000000 0.0065000000 0.0065000000 0.0065000000 0.0065000000 0.0065000000 0.0065000000 0.0065000000 0.0065000000 0.0065000000 0.0065000000 0.0065000000 0.0065000000 0.0065000000 0.0065000000 0.0065000000 0.0065000000 0.0065000000 0.0065000000 0.0065000000 0.0065000000 0.0065000000 0.0065000000 0.0065000000 0.0065000000 0.0065000000 0.0065000000 0.0065000000 0.0065000000 0.0065000000 0.0065000000 0.0065000000 0.0065000000 0.0065000000 0.0065000000 0.0065000000 0.0065000000 0.0065000000 0.0065000000 0.0065000000 0.0065000000 0.0065000000 0.0065000000 0.0065000000 0.0065000000 0.0065000000 0.0065000000 0.0065000000 0.0065000000 0.0065000000 0.0065000000 0.0065000000 0.0065000000 0.0065000000 0.0065000000 0.0065000000 0.0065000000 0.0065000000 0.0065000000 0.0065000000 0.0065000000 0.0065000000 0.0065000000 0.0065000000 0.0065000000 0.0065000000 0.0065000000 0.0065000000 0.0065000000 0.0065000000 0.0065000000 0.0065000000 0.0065000000 0.0065000000 0.0065000000 0.0065000000 0.0065000000 0.0065000000 0.0065000000 0.0065000000 0.0065000000 0.0065000000 0.0065000000 0.0065000000 0.0065000000 0.0065000000 0.0065000000 0.0065000000 0.0065000000 0.0065000000 0.0065000000 0.0065000000 0.0065000000 0.0065000000 0.0065000000 0.0065000000 0.0065000000 0.0065000000 0.0065000000 0.0065000000 0.0065000000 0.0065000000 0.0065000000 0.0065000000 0.0065000000 0.0065000000 0.0065000000 0.0065000000 0.0065000000 0.0065000000 0.0065000000 0.0065000000 0.0065000000 0.0065000000 0.0065000000 0.0065000000 0.0065000000 0.0065000000 0.0065000000 0.0065000000 0.0065000000 0.0065000000 0.0065000000 0.0065000000 0.0065000000 0.0065000000 0.0065000000 0.0065000000 0.0065000000 0.0065000000 0.0065000000 0.0065000000 0.0065000000 0.0065000000 0.0065000000 0.0065000000 0.0065000000 0.0065000000 0.0065000000 0.0065000000 0.0065000000 0.0065000000 0.0065000000 0.0065000000 0.0065000000 0.0065000000 0.0065000000 0.0065000000 0.0065000000 0.0065000000 0.0065000000 0.0065000000 0.0065000000 0.0065000000 0.0065000000 0.0065000000 0.0065000000 0.0065000000 0.0065000000 0.0065000000 0.0065000000 0.0065000000 0.0065000000 0.0065000000 0.0065000000 0.0065000000 0.0065000000 0.0065000000 0.0065000000 0.0065000000 0.0065000000 0.0065000000 0.0065000000 0.0065000000 0.0065000000 0.0065000000 0.0065000000 0.0065000000 0.0065000000 0.0065000000 0.0065000000 0.0065000000 0.0065000000 0.0065000000 0.0065000000 0.0065000000 0.0065000000 0.0065000000 0.0065000000 0.0065000000 0.0065000000 0.0065000000 0.0065000000 0.0065000000 0.0065000000 0.0065000000 0.0065000000 0.0065000000 0.0065000000 0.0065000000 0.0065000000 0.0065000000 0.0065000000 0.0065000000 0.0065000000 0.0065000000 0.0065000000 0.0065000000 0.0065000000 0.0065000000 0.0065000000 0.0065000000 0.0065000000 0.0065000000 0.0065000000 0.0065000000 0.0065000000 0.0065000000 0.0065000000 0.0065000000 0.0065000000 0.0065000000 0.0065000000 0.0065000000 0.0065000000 0.0065000000 0.0065000000 0.0065000000 0.0065000000 0.0065000000 0.0065000000 0.0065000000 0.0065000000 0.0065000000 0.0065000000 0.0065000000 0.0065000000 0.0065000000 0.0065000000 0.0065000000 0.0065000000 0.0065000000 0.0065000000 0.0065000000 0.0065000000 0.0065000000 0.0065000000 0.0065000000 0.0065000000 0.0065000000 0.0065000000 0.0065000000 0.0065000000 0.0065000000 0.0065000000 0.0065000000 0.0065000000 0.0065000000 0.0065000000 0.0065000000 0.0065000000 0.0065000000 0.0065000000 0.0065000000 0.0065000000 0.0065000000 0.0065000000 0.0065000000 0.0065000000 0.0065000000 0.0065000000 0.0065000000 0.0065000000 0.0065000000 0.0065000000 0.0065000000 0.0065000000 0.0065000000 0.0065000000 0.0065000000 0.0065000000 0.0065000000 0.0065000000 0.0065000000 0.0065000000 0.0065000000 0.0065000000 0.0065000000 0.0065000000 0.0065000000 0.0065000000 0.0065000000 0.0065000000 0.0065000000 0.0065000000 0.0065000000 0.0065000000 0.0065000000 0.0065000000 0.0065000000 0.0065000000 0.0065000000 0.0065000000 0.0065000000 0.0065000000 0.0065000000 0.0065000000 0.0065000000 0.0065000000 0.0065000000 0.0065000000 0.0065000000 0.0065000000 0.0065000000 0.0065000000 0.0065000000 0.0065000000 0.0065000000 0.0065000000 0.0065000000 0.0065000000 0.0065000000 0.0065000000 0.0065000000 0.0065000000 0.0065000000 0.0065000000 0.0065000000 0.0065000000 0.0065000000 0.0065000000 0.0065000000 0.0065000000 0.0065000000 0.0065000000 0.0065000000 0.0065000000 0.0065000000 0.0065000000 0.0065000000 0.0065000000 0.0065000000 0.0065000000 0.0065000000 0.0065000000 0.0065000000 0.0065000000 0.0065000000 0.0065000000 0.0065000000 0.0065000000 0.0065000000 0.0065000000 0.0065000000 0.0065000000 0.0065000000 0.0065000000 0.0065000000 0.0065000000 0.0065000000 0.0065000000 0.0065000000 0.0065000000 0.0065000000 0.0065000000 0.0065000000 0.0065000000 0.0065000000 0.0065000000 0.0065000000 0.0065000000 0.0065000000 0.0065000000 0.0065000000 0.0065000000 0.0065000000 0.0065000000 0.0065000000 0.0065000000 0.0065000000 0.0065000000 0.0065000000 0.0065000000 0.0065000000 0.0065000000 0.0065000000 0.0065000000 0.0065000000 0.0065000000 0.0065000000 0.0065000000 0.0065000000 0.0065000000 0.0065000000 0.0065000000 0.0065000000 0.0065000000 0.0065000000 0.0065000000 0.0065000000 0.0065000000 0.0065000000 0.0065000000 0.0065000000 0.0065000000 0.0065000000 0.0065000000 0.0065000000 0.0065000000 0.0065000000 0.0065000000 0.0065000000 0.0065000000 0.0065000000 0.0065000000 0.0065000000 0.0065000000 0.0065000000 0.0065000000 0.0065000000 0.0065000000 0.0065000000 0.0065000000 0.0065000000 0.0065000000 0.0065000000 0.0065000000 0.0065000000 0.0065000000 0.0065000000 0.0065000000 0.0065000000 0.0065000000 0.0065000000 0.0065000000 0.0065000000 0.0065000000 0.0065000000 0.0065000000 0.0065000000 0.0065000000 0.0065000000 0.0065000000 0.0065000000 0.0065000000 0.0065000000 0.0065000000 0.0065000000 0.0065000000 0.0065000000 0.0065000000 0.0065000000 0.0065000000 0.0065000000 0.0065000000 0.0065000000 0.0065000000 0.0065000000 0.0065000000 0.0065000000 0.0065000000 0.0065000000 0.0065000000 0.0065000000 0.0065000000 0.0065000000 0.0065000000 0.0065000000 0.0065000000 0.0065000000 0.0065000000 0.0065000000 0.0065000000 0.0065000000 0.0065000000 0.0065000000 0.0065000000 0.0065000000 0.0065000000 0.0065000000 0.0065000000 0.0065000000 0.0065000000 0.0065000000 0.0065000000 0.0065000000 0.0065000000 0.0065000000 0.0065000000 0.0065000000 0.0065000000 0.0065000000 0.0065000000 0.0065000000 0.0065000000 0.0065000000 0.0065000000 0.0065000000 0.0065000000 0.0065000000 0.0065000000 0.0065000000 0.0065000000 0.0065000000 0.0065000000 0.0065000000 0.0065000000 0.0065000000 0.0065000000 0.0065000000 0.0065000000 0.0065000000 0.0065000000 0.0065000000 0.0065000000 0.0065000000 0.0065000000 0.0065000000 0.0065000000 0.0065000000 0.0065000000 0.0065000000 0.0065000000 0.0065000000 0.0065000000 0.0065000000 0.0065000000 0.0065000000 0.0065000000 0.0065000000 0.0065000000 0.0065000000 0.0065000000 0.0065000000 0.0065000000 0.0065000000 0.0065000000 0.0065000000 0.0065000000 0.0065000000 0.0065000000 0.0065000000 0.0065000000 0.0065000000 0.0065000000 0.0065000000 0.0065000000 0.0065000000 0.0065000000 0.0065000000 0.0065000000 0.0065000000 0.0065000000 0.0065000000 0.0065000000 0.0065000000 0.0065000000 0.0065000000 0.0065000000 0.0065000000 0.0065000000 0.0065000000 0.0065000000 0.0065000000 0.0065000000 0.0065000000 0.0065000000 0.0065000000 0.0065000000 0.0065000000 0.0065000000 0.0065000000 0.0065000000 0.0065000000 0.0065000000 0.0065000000 0.0065000000 0.0065000000 0.0065000000 0.0065000000 0.0065000000 0.0065000000 0.0065000000 0.0065000000 0.0065000000 0.0065000000 0.0065000000 0.0065000000 0.0065000000 0.0065000000 0.0065000000 0.0065000000 0.0065000000 0.0065000000 0.0065000000 0.0065000000 0.0065000000 0.0065000000 0.0065000000 0.0065000000 0.0065000000 0.0065000000 0.0065000000 0.0065000000 0.0065000000 0.0065000000 0.0065000000 0.0065000000 0.0065000000 0.0065000000 0.0065000000 0.0065000000 0.0065000000 0.0065000000 0.0065000000 0.0065000000 0.0065000000 0.0065000000 0.0065000000 0.0065000000 0.0065000000 0.0065000000 0.0065000000 0.0065000000 0.0065000000 0.0065000000 0.0065000000 0.0065000000 0.0065000000 0.0065000000 0.0065000000 0.0065000000 0.0065000000 0.0065000000 0.0065000000 0.0065000000 0.0065000000 0.0065000000 0.0065000000 0.0065000000 0.0065000000 0.0065000000 0.0065000000 0.0065000000 0.0065000000 0.0065000000 0.0065000000 0.0065000000 0.0065000000 0.0065000000 0.0065000000 0.0065000000 0.0065000000 0.0065000000 0.0065000000 0.0065000000 0.0065000000 0.0065000000 0.0065000000 0.0065000000 0.0065000000 0.0065000000 0.0065000000 0.0065000000 0.0065000000 0.0065000000 0.0065000000 0.0065000000 0.0065000000 0.0065000000 0.0065000000 0.0065000000 0.0065000000 0.0065000000 0.0065000000 0.0065000000 0.0065000000 0.0065000000 0.0065000000 0.0065000000 0.0065000000 0.0065000000 0.0065000000 0.0065000000 0.0065000000 0.0065000000 0.0065000000 0.0065000000 0.0065000000 0.0065000000 0.0065000000 0.0065000000 0.0065000000 0.0065000000 0.0065000000 0.0065000000 0.0065000000 0.0065000000 0.0065000000 0.0065000000 0.0065000000 0.0065000000 0.0065000000 0.0065000000 0.0065000000 0.0065000000 0.0065000000 0.0065000000 0.0065000000 0.0065000000 0.0065000000 0.0065000000 0.0065000000 0.0065000000 0.0065000000 0.0065000000 0.0065000000 0.0065000000 0.0065000000 0.0065000000 0.0065000000 0.0065000000 0.0065000000 0.0065000000 0.0065000000 0.0065000000 0.0065000000 0.0065000000 0.0065000000 0.0065000000 0.0065000000 0.0065000000 0.0065000000 0.0065000000 0.0065000000 0.0065000000 0.0065000000 0.0065000000 0.0065000000 0.0065000000 0.0065000000 0.0065000000 0.0065000000 0.0065000000 0.0065000000 0.0065000000 0.0065000000 0.0065000000 0.0065000000 0.0065000000 0.0065000000 0.0065000000 0.0065000000 0.0065000000 0.0065000000 0.0065000000 0.0065000000 0.0065000000 0.0065000000 0.0065000000 0.0065000000 0.0065000000 0.0065000000 0.0065000000 0.0065000000 0.0065000000 0.0065000000 0.0065000000 0.0065000000 0.0065000000 0.0065000000 0.0065000000 0.0065000000 0.0065000000 0.0065000000 0.0065000000 0.0065000000 0.0065000000 0.0065000000 0.0065000000 0.0065000000 0.0065000000 0.0065000000 0.0065000000 0.0065000000 0.0065000000 0.0065000000 0.0065000000 0.0065000000 0.0065000000 0.0065000000 0.0065000000 0.0065000000 0.0065000000 0.0065000000 0.0065000000 0.0065000000 0.0065000000 0.0065000000 0.0065000000 0.0065000000 0.0065000000 0.0065000000 0.0065000000 0.0065000000 0.0065000000 0.0065000000 0.0065000000 0.0065000000 0.0065000000 0.0065000000 0.0065000000 0.0065000000 0.0065000000 0.0065000000 0.0065000000 0.0065000000 0.0065000000 0.0065000000 0.0065000000 0.0065000000 0.0065000000 0.0065000000 0.0065000000 0.0065000000 0.0065000000 0.0065000000 0.0065000000 0.0065000000 0.0065000000 0.0065000000 0.0065000000 0.0065000000 0.0065000000 0.0065000000 0.0065000000 0.0065000000 0.0065000000 0.0065000000 0.0065000000 0.0065000000 0.0065000000 0.0065000000 0.0065000000 0.0065000000 0.0065000000 0.0065000000 0.0065000000 0.0065000000 0.0065000000 0.0065000000 0.0065000000 0.0065000000 0.0065000000 0.0065000000 0.0065000000 0.0065000000 0.0065000000 0.0065000000 0.0065000000 0.0065000000 0.0065000000 0.0065000000 0.0065000000 0.0065000000 0.0065000000 0.0065000000 0.0065000000 0.0065000000 0.0065000000 0.0065000000 0.0065000000 0.0065000000 0.0065000000 0.0065000000 0.0065000000 0.0065000000 0.0065000000 0.0065000000 0.0065000000 0.0065000000 0.0065000000 0.0065000000 0.0065000000 0.0065000000 0.0065000000 0.0065000000 0.0065000000 0.0065000000 0.0065000000 0.0065000000 0.0065000000 0.0065000000 0.0065000000 0.0065000000 0.0065000000 0.0065000000 0.0065000000 0.0065000000 0.0065000000 0.0065000000 0.0065000000 0.0065000000 0.0065000000 0.0065000000 0.0065000000 0.0065000000 0.0065000000 0.0065000000 0.0065000000 0.0065000000 0.0065000000 0.0065000000 0.0065000000 0.0065000000 0.0065000000 0.0065000000 0.0065000000 0.0065000000 0.0065000000 0.0065000000 0.0065000000 0.0065000000 0.0065000000 0.0065000000 0.0065000000 0.0065000000 0.0065000000 0.0065000000 0.0065000000 0.0065000000 0.0065000000 0.0065000000 0.0065000000 0.0065000000 0.0065000000 0.0065000000 0.0065000000 0.0065000000 0.0065000000 0.0065000000 0.0065000000 0.0065000000 0.0065000000 0.0065000000 0.0065000000 0.0065000000 0.0065000000 0.0065000000 0.0065000000 0.0065000000 0.0065000000 0.0065000000 0.0065000000 0.0065000000 0.0065000000 0.0065000000 0.0065000000 0.0065000000 0.0065000000 0.0065000000 0.0065000000 0.0065000000 0.0065000000 0.0065000000 0.0065000000 0.0065000000 0.0065000000 0.0065000000 0.0065000000 0.0065000000 0.0065000000 0.0065000000 0.0065000000 0.0065000000 0.0065000000 0.0065000000 0.0065000000 0.0065000000 0.0065000000 0.0065000000 0.0065000000 0.0065000000 0.0065000000 0.0065000000 0.0065000000 0.0065000000 0.0065000000 0.0065000000 0.0065000000 0.0065000000 0.0065000000 0.0065000000 0.0065000000 0.0065000000 0.0065000000 0.0065000000 0.0065000000 0.0065000000 0.0065000000 0.0065000000 0.0065000000 0.0065000000 0.0065000000 0.0065000000 0.0065000000 0.0065000000 0.0065000000 0.0065000000 0.0065000000 0.0065000000 0.0065000000 0.0065000000 0.0065000000 0.0065000000 0.0065000000 0.0065000000 0.0065000000 0.0065000000 0.0065000000 0.0065000000 0.0065000000 0.0065000000 0.0065000000 0.0065000000 0.0065000000 0.0065000000 0.0065000000 0.0065000000 0.0065000000 0.0065000000 0.0065000000 0.0065000000 0.0065000000 0.0065000000 0.0065000000 0.0065000000 0.0065000000 0.0065000000 0.0065000000 0.0065000000 0.0065000000 0.0065000000 0.0065000000 0.0065000000 0.0065000000 0.0065000000 0.0065000000 0.0065000000 0.0065000000 0.0065000000 0.0065000000 0.0065000000 0.0065000000 0.0065000000 0.0065000000 0.0065000000 0.0065000000 0.0065000000 0.0065000000 0.0065000000 0.0065000000 0.0065000000 0.0065000000 0.0065000000 0.0065000000 0.0065000000 0.0065000000 0.0065000000 0.0065000000 0.0065000000 0.0065000000 0.0065000000 0.0065000000 0.0065000000 0.0065000000 0.0065000000 0.0065000000 0.0065000000 0.0065000000 0.0065000000 0.0065000000 0.0065000000 0.0065000000 0.0065000000 0.0065000000 0.0065000000 0.0065000000 0.0065000000 0.0065000000 0.0065000000 0.0065000000 0.0065000000 0.0065000000 0.0065000000 0.0065000000 0.0065000000 0.0065000000 0.0065000000 0.0065000000 0.0065000000 0.0065000000 0.0065000000 0.0065000000 0.0065000000 0.0065000000 0.0065000000 0.0065000000 0.0065000000 0.0065000000 0.0065000000 0.0065000000 0.0065000000 0.0065000000 0.0065000000 0.0065000000 0.0065000000 0.0065000000 0.0065000000 0.0065000000 0.0065000000 0.0065000000 0.0065000000 0.0065000000 0.0065000000 0.0065000000 0.0065000000 0.0065000000 0.0065000000 0.0065000000 0.0065000000 0.0065000000 0.0065000000 0.0065000000 0.0065000000 0.0065000000 0.0065000000 0.0065000000 0.0065000000 0.0065000000 0.0065000000 0.0065000000 0.0065000000 0.0065000000 0.0065000000 0.0065000000 0.0065000000 0.0065000000 0.0065000000 0.0065000000 0.0065000000 0.0065000000 0.0065000000 0.0065000000 0.0065000000 0.0065000000 0.0065000000 0.0065000000 0.0065000000 0.0065000000 0.0065000000 0.0065000000 0.0065000000 0.0065000000 0.0065000000 0.0065000000 0.0065000000 0.0065000000 0.0065000000 0.0065000000 0.0065000000 0.0065000000 0.0065000000 0.0065000000 0.0065000000 0.0065000000 0.0065000000 0.0065000000 0.0065000000 0.0065000000 0.0065000000 0.0065000000 0.0065000000 0.0065000000 0.0065000000 0.0065000000 0.0065000000 0.0065000000 0.0065000000 0.0065000000 0.0065000000 0.0065000000 0.0065000000 0.0065000000 0.0065000000 0.0065000000 0.0065000000 0.0065000000 0.0065000000 0.0065000000 0.0065000000 0.0065000000 0.0065000000 0.0065000000 0.0065000000 0.0065000000 0.0065000000 0.0065000000 0.0065000000 0.0065000000 0.0065000000 0.0065000000 0.0065000000 0.0065000000 0.0065000000 0.0065000000 0.0065000000 0.0065000000 0.0065000000 0.0065000000 0.0065000000 0.0065000000 0.0065000000 0.0065000000 0.0065000000 0.0065000000 0.0065000000 0.0065000000 0.0065000000 0.0065000000 0.0065000000 0.0065000000 0.0065000000 0.0065000000 0.0065000000 0.0065000000 0.0065000000 0.0065000000 0.0065000000 0.0065000000 0.0065000000 0.0065000000 0.0065000000 0.0065000000 0.0065000000 0.0065000000 0.0065000000 0.0065000000 0.0065000000 0.0065000000 0.0065000000 0.0065000000 0.0065000000 0.0065000000 0.0065000000 0.0065000000 0.0065000000 0.0065000000 0.0065000000 0.0065000000 0.0065000000 0.0065000000 0.0065000000 0.0065000000 0.0065000000 0.0065000000 0.0065000000 0.0065000000 0.0065000000 0.0065000000 0.0065000000 0.0065000000 0.0065000000 0.0065000000 0.0065000000 0.0065000000 0.0065000000 0.0065000000 0.0065000000 0.0065000000 0.0065000000 0.0065000000 0.0065000000 0.0065000000 0.0065000000 0.0065000000 0.0065000000 0.0065000000 0.0065000000 0.0065000000 0.0065000000 0.0065000000 0.0065000000 0.0065000000 0.0065000000 0.0065000000 0.0065000000 0.0065000000 0.0065000000 0.0065000000 0.0065000000 0.0065000000 0.0065000000 0.0065000000 0.0065000000 0.0065000000 0.0065000000 0.0065000000 0.0065000000 0.0065000000 0.0065000000 0.0065000000 0.0065000000 0.0065000000 0.0065000000 0.0065000000 0.0065000000 0.0065000000 0.0065000000 0.0065000000 0.0065000000 0.0065000000 0.0065000000 0.0065000000 0.0065000000 0.0065000000 0.0065000000 0.0065000000 0.0065000000 0.0065000000 0.0065000000 0.0065000000 0.0065000000 0.0065000000 0.0065000000 0.0065000000 0.0065000000 0.0065000000 0.0065000000 0.0065000000 0.0065000000 0.0065000000 0.0065000000 0.0065000000 0.0065000000 0.0065000000 0.0065000000 0.0065000000 0.0065000000 0.0065000000 0.0065000000 0.0065000000 0.0065000000 0.0065000000 0.0065000000 0.0065000000 0.0065000000 0.0065000000 0.0065000000 0.0065000000 0.0065000000 0.0065000000 0.006500000