<?xml version="1.0"?>
<VTKFile type="UnstructuredGrid" version="0.1" byte_order="LittleEndian">
  <UnstructuredGrid>
    <FieldData>
      <DataArray type="Float32" Name="TIME"  NumberOfTuples="1" format="ascii"> 0.3997246864 </DataArray>
      <DataArray type="Int32"   Name="STEP"  NumberOfTuples="1" format="ascii"> 5360 </DataArray>
    </FieldData>
    <Piece NumberOfPoints="18081" NumberOfCells="18081">
      <Points>
        <DataArray type="Float32" NumberOfComponents="3" format="ascii">
 0.0408157841 0.0176078569 0.0009963637 0.0555565807 0.0200716185 -0.0000709908 0.0614335329 0.0207154708 0.0003227955 0.0771125954 0.0194666593 0.0000437405 0.0891794540 0.0193967525 0.0000036790 0.0948694725 0.0195631404 -0.0001815874 0.1254504589 0.0175633578 -0.0007672310 0.1423306896 0.0211074622 0.0016602295 0.1744883714 0.0174035157 0.0003130874 0.1960159165 0.0199527471 0.0021787504 0.2103426185 0.0183796314 0.0007721429 0.2422970157 0.0180435978 -0.0006344925 0.2611503663 0.0139677372 -0.0011452630 0.3015297477 0.0130547667 -0.0006419180 0.3433726169 0.0175615824 -0.0005399866 0.3805888759 0.0120472153 -0.0008949029 0.4217946429 0.0089289573 0.0008910824 0.4676825440 0.0110057929 0.0015611316 0.4980143597 0.0053699500 0.0190857255 0.4997020576 0.0031455341 0.0560653935 0.4969953475 0.0013610972 0.0977567912 0.0423428265 0.0218305971 0.0005097256 0.0465252645 0.0190592567 -0.0001413662 0.0582305582 0.0231905206 0.0031139373 0.0721823654 0.0206854788 0.0029634210 0.1046526960 0.0241694361 -0.0011224288 0.1304331279 0.0191855829 0.0000275347 0.1521805784 0.0243596970 0.0007402275 0.1784952489 0.0196052474 -0.0004418795 0.2055104499 0.0202745180 0.0017430243 0.2366783695 0.0175872446 -0.0000795312 0.2541838451 0.0194708472 0.0000992477 0.2828845052 0.0175765061 -0.0001460004 0.3239749046 0.0179573348 -0.0012193385 0.3697286892 0.0156398618 0.0016648057 0.4031994308 0.0176344276 0.0002070290 0.4216173147 0.0130062311 -0.0006176877 0.4781335444 0.0124987021 -0.0008511006 0.4998533061 0.0118762347 0.0214010234 0.5018966875 0.0059143941 0.0108352101 0.4989215243 0.0085110919 0.0705814545 0.4994261843 0.0220794802 0.1295245609 0.0479074880 0.0234762137 -0.0000022710 0.0529262512 0.0240409476 -0.0005103984 0.0579147314 0.0268033703 0.0000543024 0.0631906868 0.0246649211 -0.0003621640 0.0802026415 0.0243634009 -0.0004016461 0.1117863561 0.0213442752 0.0006393771 0.1408763412 0.0254312660 -0.0008357914 0.1691317087 0.0197216155 0.0001576743 0.1911406787 0.0229343953 -0.0004610333 0.2169108954 0.0227389749 0.0012775319 0.2462900447 0.0211233853 -0.0002412668 0.2723384393 0.0234711929 -0.0009660824 0.2970051059 0.0233750338 -0.0009181827 0.3361961353 0.0214187190 -0.0005271169 0.3588505228 0.0171232023 -0.0001882659 0.4225432402 0.0186344537 0.0034158483 0.4831780080 0.0179078081 -0.0001567581 0.4996596361 0.0150968819 0.0215846222 0.5019067677 0.0100320749 0.0560911852 0.5022197713 0.0042606108 0.0787413906 0.4962648431 0.0013605481 0.1144407363 0.0420339612 0.0266145072 -0.0007403178 0.0494216830 0.0281764319 -0.0004971506 0.0613063610 0.0308703881 -0.0005540836 0.0725674448 0.0245586948 -0.0006457038 0.0979955656 0.0236534391 -0.0006307003 0.1231368638 0.0235272544 -0.0004938842 0.1473498646 0.0232124969 -0.0010477188 0.1738626183 0.0233483581 -0.0006037076 0.1992913914 0.0189713223 -0.0007642288 0.2301979113 0.0196608454 -0.0004923491 0.2538177406 0.0235881913 -0.0000619324 0.2842739714 0.0224731731 -0.0004946670 0.3198363250 0.0212229388 0.0002181812 0.3494528546 0.0165231319 -0.0005857138 0.3974040893 0.0221193761 -0.0005229383 0.4279125824 0.0193240739 -0.0001037936 0.4684400195 0.0207315805 0.0016245454 0.4986027126 0.0205034975 0.0178626432 0.4998307875 0.0166748643 0.0348587843 0.5013047781 0.0053034352 0.0866586516 0.4981730345 0.0098964163 0.1167739103 0.0361242871 0.0273656306 0.0004651124 0.0546715856 0.0298916663 0.0003043108 0.0717229910 0.0301207305 -0.0005929114 0.0768255606 0.0278065278 0.0002321250 0.0938748032 0.0293823163 -0.0009275924 0.1112063152 0.0256202995 0.0000622048 0.1346529763 0.0269768639 -0.0002616667 0.1670592397 0.0246438960 -0.0005542367 0.1938555672 0.0285003164 -0.0007778354 0.2216346126 0.0239140563 -0.0006772345 0.2485851321 0.0260829375 -0.0006064831 0.2818597858 0.0285123726 -0.0005034246 0.3115746114 0.0240330672 -0.0008501374 0.3399400493 0.0305654942 0.0002205174 0.3845391985 0.0212568217 -0.0001518626 0.4167985410 0.0285875276 0.0001844988 0.4807753122 0.0229408047 0.0009938836 0.4988686609 0.0243850370 0.0214403895 0.5020235526 0.0176271719 0.0077680256 0.4986721570 0.0204319228 0.1013522369 0.4997565517 0.0096514919 0.1158057372 0.0393531003 0.0321434806 0.0001065830 0.0521578885 0.0334583647 0.0000582226 0.0667737399 0.0329199745 -0.0001163973 0.0760992815 0.0332603706 -0.0002495645 0.0818181110 0.0301505055 -0.0008196539 0.1086436883 0.0366766318 0.0005480741 0.1362889312 0.0307640958 0.0002917226 0.1666633990 0.0305462890 -0.0006480712 0.1839047334 0.0319818694 -0.0004149164 0.2079407398 0.0283664668 -0.0005204232 0.2428279615 0.0276446723 -0.0005168046 0.2699873409 0.0309974446 -0.0009628971 0.3000231410 0.0318338596 -0.0007733123 0.3401853637 0.0354269009 -0.0007140381 0.3831588839 0.0272891152 -0.0001962872 0.4288300591 0.0285538938 0.0011106298 0.4857665168 0.0312613308 -0.0008053675 0.4995644467 0.0264784676 0.0120652283 0.4993792694 0.0219249313 0.0473485485 0.5021052737 0.0285238413 0.0763118010 0.5002015030 0.0280823487 0.1188310395 0.0383616826 0.0373441810 -0.0005776117 0.0531646666 0.0379372441 -0.0007020436 0.0705382424 0.0361562350 -0.0002367516 0.0840192999 0.0363078525 -0.0007657125 0.0909116710 0.0395678124 -0.0004324266 0.1163729969 0.0329569730 -0.0005327618 0.1513401293 0.0324184065 -0.0007546661 0.1733453779 0.0329536855 -0.0007424524 0.1964058470 0.0329903247 -0.0004719957 0.2229447917 0.0346814372 -0.0004621833 0.2425255543 0.0378529984 -0.0010175755 0.2826729050 0.0376349648 -0.0008409147 0.3103233848 0.0357023030 -0.0000955650 0.3500690654 0.0317812138 -0.0009663583 0.3874057185 0.0349669098 -0.0002281675 0.4265093591 0.0346143920 -0.0007960754 0.4710706192 0.0353579011 0.0003354464 0.4989414334 0.0313480594 0.0301972981 0.4969994641 0.0301648439 0.0583801819 0.5009396521 0.0339417683 0.0938885471 0.4986243788 0.0176528150 0.1155734692 0.0409602007 0.0419183708 -0.0004892502 0.0567707606 0.0432256508 -0.0005109236 0.0648479748 0.0387377057 -0.0004981548 0.0747909345 0.0394607748 -0.0002440740 0.0828111762 0.0408077269 0.0000104250 0.1082525730 0.0463924008 -0.0006819599 0.1386009009 0.0374840684 -0.0003664097 0.1626780414 0.0424322043 -0.0002458142 0.1844108826 0.0385568243 -0.0006506454 0.2049742179 0.0418970506 -0.0010856887 0.2370227749 0.0390229788 0.0000621030 0.2736654394 0.0374662406 -0.0006928962 0.2973022453 0.0416086308 -0.0005769916 0.3442227997 0.0376066719 0.0001279879 0.3830290851 0.0379497689 -0.0002782993 0.4292056330 0.0392878103 0.0003744630 0.4807392384 0.0375441741 0.0003096289 0.4979259902 0.0372849899 0.0250732005 0.5020240660 0.0371757170 0.0457033736 0.4992792190 0.0408970043 0.0807874979 0.4992115595 0.0387816044 0.1144607861 0.0410377644 0.0471943203 -0.0008063379 0.0539572139 0.0475887749 -0.0007468772 0.0718803916 0.0450684634 -0.0007434081 0.0776489698 0.0431030937 -0.0001934896 0.0872733714 0.0429423422 0.0001781294 0.1152526852 0.0419278088 -0.0006651455 0.1468510986 0.0432303505 -0.0008183898 0.1692811012 0.0426602903 -0.0008162940 0.1916717015 0.0420369023 -0.0004708504 0.2169421747 0.0446171887 -0.0004197729 0.2442027759 0.0431189935 -0.0002890662 0.2891476070 0.0466289622 -0.0005444861 0.3077904970 0.0448553043 -0.0005465405 0.3438891165 0.0423933221 -0.0005092019 0.3832103250 0.0438900318 -0.0009215699 0.4283785090 0.0445473545 -0.0003347134 0.4800421031 0.0438431963 -0.0010244335 0.4998892321 0.0409373226 0.0211077681 0.5009198404 0.0434793996 0.0481005341 0.5019366221 0.0454547813 0.0918744187 0.4976920562 0.0309591386 0.1159778814 0.0407775247 0.0537944758 -0.0006989098 0.0578811758 0.0530022245 -0.0006490143 0.0664340049 0.0483928997 -0.0003269119 0.0762246213 0.0478674446 0.0003384203 0.0827389120 0.0459954111 -0.0006153861 0.1164140762 0.0471792663 -0.0004971786 0.1420732751 0.0488083620 -0.0007217623 0.1606104079 0.0461936956 -0.0007768995 0.1892086944 0.0482798339 -0.0009099051 0.2026334574 0.0484648651 -0.0009759318 0.2395193311 0.0464632136 -0.0008693500 0.2753955050 0.0481493874 -0.0008008998 0.2982116658 0.0492481183 -0.0010522409 0.3427640872 0.0510066275 0.0027933025 0.3838780627 0.0493924435 0.0006981689 0.4273361877 0.0496101841 0.0002504280 0.4784287920 0.0488437617 0.0010231163 0.4992374602 0.0467757044 0.0087358112 0.5011604761 0.0480251164 0.0468337806 0.4994971213 0.0513382569 0.0904231704 0.4989950104 0.0463693745 0.1173850220 0.0432026371 0.0582771756 -0.0005909791 0.0556719600 0.0576949603 -0.0003277514 0.0713768399 0.0514004161 -0.0003617101 0.0763686199 0.0536437028 -0.0006036704 0.0897696049 0.0527203026 -0.0001369442 0.1113779132 0.0526223645 -0.0001801307 0.1500428150 0.0528307084 -0.0008820797 0.1682055874 0.0519022895 -0.0005809865 0.1933806960 0.0523053710 -0.0006368044 0.2186417940 0.0528543377 -0.0004509457 0.2431433782 0.0515223246 -0.0007252491 0.2886629778 0.0557678240 -0.0009066720 0.3016262487 0.0526373526 0.0003220430 0.3451256281 0.0532977478 -0.0006523484 0.3821312941 0.0552522844 -0.0009788153 0.4272374778 0.0542406961 -0.0003531108 0.4800480084 0.0532176611 -0.0014064102 0.4995695399 0.0529754553 0.0227254726 0.5007460289 0.0509648520 0.0016999765 0.4977676990 0.0538099350 0.0751757126 0.4992057680 0.0427691564 0.1184132969 0.0416598863 0.0634131880 0.0000942832 0.0584085543 0.0624986929 -0.0007986957 0.0707190180 0.0570446491 -0.0007600202 0.0757915848 0.0597371847 -0.0001330074 0.0870319661 0.0569251003 -0.0006915945 0.1134198485 0.0570562834 0.0000887142 0.1427838698 0.0582732796 -0.0006676700 0.1667774966 0.0576532908 -0.0002709662 0.1845941729 0.0586511979 -0.0000361
[...]
      <PointData Scalars="smoothLength">
        <DataArray type="Float32" Name="smoothLength" format="ascii">
 0.0065000000 0.0065000000 0.0065000000 0.0065000000 0.0065000000 0.0065000000 0.0065000000 0.0065000000 0.0065000000 0.0065000000 0.0065000000 0.0065000000 0.0065000000 0.0065000000 0.0065000000 0.0065000000 0.0065000000 0.0065000000 0.0065000000 0.0065000000 0.0065000000 0.0065000000 0.0065000000 0.0065000000 0.0065000000 0.0065000000 0.0065000000 0.0065000000 0.0065000000 0.0065000000 0.0065000000 0.0065000000 0.0065000000 0.0065000000 0.0065000000 0.0065000000 0.0065000000 0.0065000000 0.0065000000 0.0065000000 0.0065000000 0.0065000000 0.0065000000 0.0065000000 0.0065000000 0.0065000000 0.0065000000 0.0065000000 0.0065000000 0.0065000000 0.0065000000 0.0065000000 0.0065000000 0.0065000000 0.0065000000 0.0065000000 0.0065000000 0.0065000000 0.0065000000 0.0065000000 0.0065000000 0.0065000000 0.0065000000 0.0065000000 0.0065000000 0.0065000000 0.0065000000 0.0065000000 0.0065000000 0.0065000000 0.0065000000 0.0065000000 0.0065000000 0.0065000000 0.0065000000 0.0065000000 0.0065000000 0.0065000000 0.0065000000 0.0065000000 0.0065000000 0.0065000000 0.0065000000 0.0065000000 0.0065000000 0.0065000000 0.0065000000 0.0065000000 0.0065000000 0.0065000000 0.0065000000 0.0065000000 0.0065000000 0.0065000000 0.0065000000 0.0065000000 0.0065000000 0.0065000000 0.0065000000 0.0065000000 0.0065000000 0.0065000000 0.0065000000 0.0065000000 0.0065000000 0.0065000000 0.0065000000 0.0065000000 0.0065000000 0.0065000000 0.0065000000 0.0065000000 0.0065000000 0.0065000000 0.0065000000 0.0065000000 0.0065000000 0.0065000000 0.0065000000 0.0065000000 0.0065000000 0.0065000000 0.0065000000 0.0065000000 0.0065000000 0.0065000000 0.0065000000 0.0065000000 0.0065000000 0.0065000000 0.0065000000 0.0065000000 0.0065000000 0.0065000000 0.0065000000 0.0065000000 0.0065000000 0.0065000000 0.0065000000 0.0065000000 0.0065000000 0.0065000000 0.0065000000 0.0065000000 0.0065000000 0.0065000000 0.0065000000 0.0065000000 0.0065000000 0.0065000000 0.0065000000 0.0065000000 0.0065000000 0.0065000000 0.0065000000 0.0065000000 0.0065000000 0.0065000000 0.0065000000 0.0065000000 0.0065000000 0.0065000000 0.0065000000 0.0065000000 0.0065000000 0.0065000000 0.0065000000 0.0065000000 0.0065000000 0.0065000000 0.0065000000 0.0065000000 0.0065000000 0.0065000000 0.0065000000 0.0065000000 0.0065000000 0.0065000000 0.0065000000 0.0065000000 0.0065000000 0.0065000000 0.0065000000 0.0065000000 0.0065000000 0.0065000000 0.0065000000 0.0065000000 0.0065000000 0.0065000000 0.0065000000 0.0065000000 0.0065000000 0.0065000000 0.0065000000 0.0065000000 0.0065000000 0.0065000000 0.0065000000 0.0065000000 0.0065000000 0.0065000000 0.0065000000 0.0065000000 0.0065000000 0.0065000000 0.0065000000 0.0065000000 0.0065000000 0.0065000000 0.0065000000 0.0065000000 0.0065000000 0.0065000000 0.0065000000 0.0065000000 0.0065000000 0.0065000000 0.0065000000 0.0065000000 0.0065000000 0.0065000000 0.0065000000 0.0065000000 0.0065000000 0.0065000000 0.0065000000 0.0065000000 0.0065000000 0.0065000000 0.0065000000 0.0065000000 0.0065000000 0.0065000000 0.0065000000 0.0065000000 0.0065000000 0.0065000000 0.0065000000 0.0065000000 0.0065000000 0.0065000000 0.0065000000 0.0065000000 0.0065000000 0.0065000000 0.0065000000 0.0065000000 0.0065000000 0.0065000000 0.0065000000 0.0065000000 0.0065000000 0.0065000000 0.0065000000 0.0065000000 0.0065000000 0.0065000000 0.0065000000 0.0065000000 0.0065000000 0.0065000000 0.0065000000 0.0065000000 0.0065000000 0.0065000000 0.0065000000 0.0065000000 0.0065000000 0.0065000000 0.0065000000 0.0065000000 0.0065000000 0.0065000000 0.0065000000 0.0065000000 0.0065000000 0.0065000000 0.0065000000 0.0065000000 0.0065000000 0.0065000000 0.0065000000 0.0065000000 0.0065000000 0.0065000000 0.0065000000 0.0065000000 0.0065000000 0.0065000000 0.0065000000 0.0065000000 0.0065000000 0.0065000000 0.0065000000 0.0065000000 0.0065000000 0.0065000000 0.0065000000 0.0065000000 0.0065000000 0.0065000000 0.0065000000 0.0065000000 0.0065000000 0.0065000000 0.0065000000 0.0065000000 0.0065000000 0.0065000000 0.0065000000 0.0065000000 0.0065000000 0.0065000000 0.0065000000 0.0065000000 0.0065000000 0.0065000000 0.0065000000 0.0065000000 0.0065000000 0.0065000000 0.0065000000 0.0065000000 0.0065000000 0.0065000000 0.0065000000 0.0065000000 0.0065000000 0.0065000000 0.0065000000 0.0065000000 0.0065000000 0.0065000000 0.0065000000 0.0065000000 0.0065000000 0.0065000000 0.0065000000 0.0065000000 0.0065000000 0.0065000000 0.0065000000 0.0065000000 0.0065000000 0.0065000000 0.0065000000 0.0065000000 0.0065000000 0.0065000000 0.0065000000 0.0065000000 0.0065000000 0.0065000000 0.0065000000 0.0065000000 0.0065000000 0.0065000000 0.0065000000 0.0065000000 0.0065000000 0.0065000000 0.0065000000 0.0065000000 0.0065000000 0.0065000000 0.0065000000 0.0065000000 0.0065000000 0.0065000000 0.0065000000 0.0065000000 0.0065000000 0.0065000000 0.0065000000 0.0065000000 0.0065000000 0.0065000000 0.0065000000 0.0065000000 0.0065000000 0.0065000000 0.0065000000 0.0065000000 0.0065000000 0.0065000000 0.0065000000 0.0065000000 0.0065000000 0.0065000000 0.0065000000 0.0065000000 0.0065000000 0.0065000000 0.0065000000 0.0065000000 0.0065000000 0.0065000000 0.0065000000 0.0065000000 0.0065000000 0.0065000000 0.0065000000 0.0065000000 0.0065000000 0.0065000000 0.0065000000 0.0065000000 0.0065000000 0.0065000000 0.0065000000 0.0065000000 0.0065000000 0.0065000000 0.0065000000 0.0065000000 0.0065000000 0.0065000000 0.0065000000 0.0065000000 0.0065000000 0.0065000000 0.0065000000 0.0065000000 0.0065000000 0.0065000000 0.0065000000 0.0065000000 0.0065000000 0.0065000000 0.0065000000 0.0065000000 0.0065000000 0.0065000000 0.0065000000 0.0065000000 0.0065000000 0.0065000000 0.0065000000 0.0065000000 0.0065000000 0.0065000000 0.0065000000 0.0065000000 0.0065000000 0.0065000000 0.0065000000 0.0065000000 0.0065000000 0.0065000000 0.0065000000 0.0065000000 0.0065000000 0.0065000000 0.0065000000 0.0065000000 0.0065000000 0.0065000000 0.0065000000 0.0065000000 0.0065000000 0.0065000000 0.0065000000 0.0065000000 0.0065000000 0.0065000000 0.0065000000 0.0065000000 0.0065000000 0.0065000000 0.0065000000 0.0065000000 0.0065000000 0.0065000000 0.0065000000 0.0065000000 0.0065000000 0.0065000000 0.0065000000 0.0065000000 0.0065000000 0.0065000000 0.0065000000 0.0065000000 0.0065000000 0.0065000000 0.0065000000 0.0065000000 0.0065000000 0.0065000000 0.0065000000 0.0065000000 0.0065000000 0.0065000000 0.0065000000 0.0065000000 0.0065000000 0.0065000000 0.0065000000 0.0065000000 0.0065000000 0.0065000000 0.0065000000 0.0065000000 0.0065000000 0.0065000000 0.0065000000 0.0065000000 0.0065000000 0.0065000000 0.0065000000 0.0065000000 0.0065000000 0.0065000000 0.0065000000 0.0065000000 0.0065000000 0.0065000000 0.0065000000 0.0065000000 0.0065000000 0.0065000000 0.0065000000 0.0065000000 0.0065000000 0.0065000000 0.0065000000 0.0065000000 0.0065000000 0.0065000000 0.0065000000 0.0065000000 0.0065000000 0.0065000000 0.0065000000 0.0065000000 0.0065000000 0.0065000000 0.0065000000 0.0065000000 0.0065000000 0.0065000000 0.0065000000 0.0065000000 0.0065000000 0.0065000000 0.0065000000 0.0065000000 0.0065000000 0.0065000000 0.0065000000 0.0065000000 0.0065000000 0.0065000000 0.0065000000 0.0065000000 0.0065000000 0.0065000000 0.0065000000 0.0065000000 0.0065000000 0.0065000000 0.0065000000 0.0065000000 0.0065000000 0.0065000000 0.0065000000 0.0065000000 0.0065000000 0.0065000000 0.0065000000 0.0065000000 0.0065000000 0.0065000000 0.0065000000 0.0065000000 0.0065000000 0.0065000000 0.0065000000 0.0065000000 0.0065000000 0.0065000000 0.0065000000 0.0065000000 0.0065000000 0.0065000000 0.0065000000 0.0065000000 0.0065000000 0.0065000000 0.0065000000 0.0065000000 0.0065000000 0.0065000000 0.0065000000 0.0065000000 0.0065000000 0.0065000000 0.0065000000 0.0065000000 0.0065000000 0.0065000000 0.0065000000 0.0065000000 0.0065000000 0.0065000000 0.0065000000 0.0065000000 0.0065000000 0.0065000000 0.0065000000 0.0065000000 0.0065000000 0.0065000000 0.0065000000 0.0065000000 0.0065000000 0.0065000000 0.0065000000 0.0065000000 0.0065000000 0.0065000000 0.0065000000 0.0065000000 0.0065000000 0.0065000000 0.0065000000 0.0065000000 0.0065000000 0.0065000000 0.0065000000 0.0065000000 0.0065000000 0.0065000000 0.0065000000 0.0065000000 0.0065000000 0.0065000000 0.0065000000 0.0065000000 0.0065000000 0.0065000000 0.0065000000 0.0065000000 0.0065000000 0.0065000000 0.0065000000 0.0065000000 0.0065000000 0.0065000000 0.0065000000 0.0065000000 0.0065000000 0.0065000000 0.0065000000 0.0065000000 0.0065000000 0.0065000000 0.0065000000 0.0065000000 0.0065000000 0.0065000000 0.0065000000 0.0065000000 0.0065000000 0.0065000000 0.0065000000 0.0065000000 0.0065000000 0.0065000000 0.0065000000 0.0065000000 0.0065000000 0.0065000000 0.0065000000 0.0065000000 0.0065000000 0.0065000000 0.0065000000 0.0065000000 0.0065000000 0.0065000000 0.0065000000 0.0065000000 0.0065000000 0.0065000000 0.0065000000 0.0065000000 0.0065000000 0.0065000000 0.0065000000 0.0065000000 0.0065000000 0.0065000000 0.0065000000 0.0065000000 0.0065000000 0.0065000000 0.0065000000 0.0065000000 0.0065000000 0.0065000000 0.0065000000 0.0065000000 0.0065000000 0.0065000000 0.0065000000 0.0065000000 0.0065000000 0.0065000000 0.0065000000 0.0065000000 0.0065000000 0.0065000000 0.0065000000 0.0065000000 0.0065000000 0.0065000000 0.0065000000 0.0065000000 0.0065000000 0.0065000000 0.0065000000 0.0065000000 0.0065000000 0.0065000000 0.0065000000 0.0065000000 0.0065000000 0.0065000000 0.0065000000 0.0065000000 0.0065000000 0.0065000000 0.0065000000 0.0065000000 0.0065000000 0.0065000000 0.0065000000 0.0065000000 0.0065000000 0.0065000000 0.0065000000 0.0065000000 0.0065000000 0.0065000000 0.0065000000 0.0065000000 0.0065000000 0.0065000000 0.0065000000 0.0065000000 0.0065000000 0.0065000000 0.0065000000 0.0065000000 0.0065000000 0.0065000000 0.0065000000 0.0065000000 0.0065000000 0.0065000000 0.0065000000 0.0065000000 0.0065000000 0.0065000000 0.0065000000 0.0065000000 0.0065000000 0.0065000000 0.0065000000 0.0065000000 0.0065000000 0.0065000000 0.0065000000 0.0065000000 0.0065000000 0.0065000000 0.0065000000 0.0065000000 0.0065000000 0.0065000000 0.0065000000 0.0065000000 0.0065000000 0.0065000000 0.0065000000 0.0065000000 0.0065000000 0.0065000000 0.0065000000 0.0065000000 0.0065000000 0.0065000000 0.0065000000 0.0065000000 0.0065000000 0.0065000000 0.0065000000 0.0065000000 0.0065000000 0.0065000000 0.0065000000 0.0065000000 0.0065000000 0.0065000000 0.0065000000 0.0065000000 0.0065000000 0.0065000000 0.0065000000 0.0065000000 0.0065000000 0.0065000000 0.0065000000 0.0065000000 0.0065000000 0.0065000000 0.0065000000 0.0065000000 0.0065000000 0.0065000000 0.0065000000 0.0065000000 0.0065000000 0.0065000000 0.0065000000 0.0065000000 0.0065000000 0.0065000000 0.0065000000 0.0065000000 0.0065000000 0.0065000000 0.0065000000 0.0065000000 0.0065000000 0.0065000000 0.0065000000 0.0065000000 0.0065000000 0.0065000000 0.0065000000 0.0065000000 0.0065000000 0.0065000000 0.0065000000 0.0065000000 0.0065000000 0.0065000000 0.0065000000 0.0065000000 0.0065000000 0.0065000000 0.0065000000 0.0065000000 0.0065000000 0.0065000000 0.0065000000 0.0065000000 0.0065000000 0.0065000000 0.0065000000 0.0065000000 0.0065000000 0.0065000000 0.0065000000 0.0065000000 0.0065000000 0.0065000000 0.0065000000 0.0065000000 0.0065000000 0.0065000000 0.0065000000 0.0065000000 0.0065000000 0.0065000000 0.0065000000 0.0065000000 0.0065000000 0.0065000000 0.0065000000 0.0065000000 0.0065000000 0.0065000000 0.0065000000 0.0065000000 0.0065000000 0.0065000000 0.0065000000 0.0065000000 0.0065000000 0.0065000000 0.0065000000 0.0065000000 0.0065000000 0.0065000000 0.0065000000 0.0065000000 0.0065000000 0.0065000000 0.0065000000 0.0065000000 0.0065000000 0.0065000000 0.0065000000 0.0065000000 0.0065000000 0.0065000000 0.0065000000 0.0065000000 0.0065000000 0.0065000000 0.0065000000 0.0065000000 0.0065000000 0.0065000000 0.0065000000 0.0065000000 0.0065000000 0.0065000000 0.0065000000 0.0065000000 0.0065000000 0.0065000000 0.0065000000 0.0065000000 0.0065000000 0.0065000000 0.0065000000 0.0065000000 0.0065000000 0.0065000000 0.0065000000 0.0065000000 0.0065000000 0.0065000000 0.0065000000 0.0065000000 0.0065000000 0.0065000000 0.0065000000 0.0065000000 0.0065000000 0.0065000000 0.0065000000 0.0065000000 0.0065000000 0.0065000000 0.0065000000 0.0065000000 0.0065000000 0.0065000000 0.0065000000 0.0065000000 0.0065000000 0.0065000000 0.0065000000 0.0065000000 0.0065000000 0.0065000000 0.0065000000 0.0065000000 0.0065000000 0.0065000000 0.0065000000 0.0065000000 0.0065000000 0.0065000000 0.0065000000 0.0065000000 0.0065000000 0.0065000000 0.0065000000 0.0065000000 0.0065000000 0.0065000000 0.0065000000 0.0065000000 0.0065000000 0.0065000000 0.0065000000 0.0065000000 0.0065000000 0.0065000000 0.0065000000 0.0065000000 0.0065000000 0.0065000000 0.0065000000 0.0065000000 0.0065000000 0.0065000000 0.0065000000 0.0065000000 0.0065000000 0.0065000000 0.0065000000 0.0065000000 0.0065000000 0.0065000000 0.0065000000 0.0065000000 0.0065000000 0.0065000000 0.0065000000 0.0065000000 0.0065000000 0.0065000000 0.0065000000 0.0065000000 0.0065000000 0.0065000000 0.0065000000 0.0065000000 0.0065000000 0.0065000000 0.0065000000 0.0065000000 0.0065000000 0.0065000000 0.0065000000 0.0065000000 0.0065000000 0.0065000000 0.0065000000 0.0065000000 0.0065000000 0.0065000000 0.0065000000 0.0065000000 0.0065000000 0.0065000000 0.0065000000 0.0065000000 0.0065000000 0.0065000000 0.0065000000 0.0065000000 0.0065000000 0.0065000000 0.0065000000 0.0065000000 0.0065000000 0.0065000000 0.0065000000 0.0065000000 0.0065000000 0.0065000000 0.0065000000 0.0065000000 0.0065000000 0.0065000000 0.0065000000 0.0065000000 0.0065000000 0.0065000000 0.0065000000 0.0065000000 0.0065000000 0.0065000000 0.0065000000 0.0065000000 0.0065000000 0.0065000000 0.0065000000 0.0065000000 0.0065000000 0.0065000000 0.0065000000 0.0065000000 0.0065000000 0.0065000000 0.0065000000 0.0065000000 0.0065000000 0.0065000000 0.0065000000 0.0065000000 0.0065000000 0.0065000000 0.0065000000 0.0065000000 0.0065000000 0.0065000000 0.0065000000 0.0065000000 0.0065000000 0.0065000000 0.0065000000 0.0065000000 0.0065000000 0.0065000000 0.0065000000 0.0065000000 0.0065000000 0.0065000000 0.0065000000 0.0065000000 0.0065000000 0.0065000000 0.0065000000 0.0065000000 0.0065000000 0.0065000000 0.0065000000 0.0065000000 0.0065000000 0.0065000000 0.0065000000 0.0065000000 0.0065000000 0.0065000000 0.0065000000 0.0065000000 0.0065000000 0.0065000000 0.0065000000 0.0065000000 0.0065000000 0.0065000000 0.0065000000 0.0065000000 0.0065000000 0.0065000000 0.0065000000 0.0065000000 0.0065000000 0.0065000000 0.0065000000 0.0065000000 0.0065000000 0.0065000000 0.0065000000 0.0065000000 0.0065000000 0.0065000000 0.0065000000 0.0065000000 0.0065000000 0.0065000000 0.0065000000 0.0065000000 0.0065000000 0.0065000000 0.0065000000 0.0065000000 0.0065000000 0.0065000000 0.0065000000 0.0065000000 0.0065000000 0.0065000000 0.0065000000 0.0065000000 0.0065000000 0.0065000000 0.0065000000 0.0065000000 0.0065000000 0.0065000000 0.0065000000 0.0065000000 0.0065000000 0.0065000000 0.0065000000 0.0065000000 0.0065000000 0.0065000000 0.0065000000 0.0065000000 0.0065000000 0.0065000000 0.0065000000 0.0065000000 0.0065000000 0.0065000000 0.0065000000 0.0065000000 0.0065000000 0.0065000000 0.0065000000 0.0065000000 0.0065000000 0.0065000000 0.0065000000 0.0065000000 0.0065000000 0.0065000000 0.0065000000 0.0065000000 0.0065000000 0.0065000000 0.0065000000 0.0065000000 0.0065000000 0.0065000000 0.0065000000 0.0065000000 0.0065000000 0.0065000000 0.0065000000 0.0065000000 0.0065000000 0.0065000000 0.0065000000 0.0065000000 0.0065000000 0.0065000000 0.0065000000 0.0065000000 0.0065000000 0.0065000000 0.0065000000 0.0065000000 0.0065000000 0.0065000000 0.0065000000 0.0065000000 0.0065000000 0.0065000000 0.0065000000 0.0065000000 0.0065000000 0.0065000000 0.0065000000 0.0065000000 0.0065000000 0.0065000000 0.0065000000 0.0065000000 0.0065000000 0.0065000000 0.0065000000 0.0065000000 0.0065000000 0.0065000000 0.0065000000 0.0065000000 0.0065000000 0.0065000000 0.0065000000 0.0065000000 0.0065000000 0.0065000000 0.0065000000 0.0065000000 0.0065000000 0.0065000000 0.0065000000 0.0065000000 0.0065000000 0.0065000000 0.0065000000 0.0065000000 0.0065000000 0.0065000000 0.0065000000 0.0065000000 0.0065000000 0.0065000000 0.0065000000 0.0065000000 0.0065000000 0.0065000000 0.0065000000 0.0065000000 0.0065000000 0.0065000000 0.0065000000 0.0065000000 0.0065000000 0.0065000000 0.0065000000 0.0065000000 0.0065000000 0.0065000000 0.0065000000 0.0065000000 0.0065000000 0.0065000000 0.0065000000 0.0065000000 0.0065000000 0.0065000000 0.0065000000 0.0065000000 0.0065000000 0.0065000000 0.0065000000 0.0065000000 0.0065000000 0.0065000000 0.0065000000 0.0065000000 0.0065000000 0.0065000000 0.0065000000 0.0065000000 0.0065000000 0.0065000000 0.0065000000 0.0065000000 0.0065000000 0.0065000000 0.0065000000 0.0065000000 0.0065000000 0.0065000000 0.0065000000 0.0065000000 0.0065000000 0.0065000000 0.0065000000 0.0065000000 0.0065000000 0.0065000000 0.0065000000 0.0065000000 0.0065000000 0.0065000000 0.0065000000 0.0065000000 0.0065000000 0.0065000000 0.0065000000 0.0065000000 0.0065000000 0.0065000000 0.0065000000 0.0065000000 0.0065000000 0.0065000000 0.0065000000 0.0065000000 0.0065000000 0.0065000000 0.0065000000 0.0065000000 0.0065000000 0.0065000000 0.0065000000 0.0065000000 0.0065000000 0.0065000000 0.0065000000 0.0065000000 0.0065000000 0.0065000000 0.0065000000 0.0065000000 0.0065000000 0.0065000000 0.0065000000 0.0065000000 0.0065000000 0.0065000000 0.0065000000 0.0065000000 0.0065000000 0.0065000000 0.0065000000 0.0065000000 0.0065000000 0.0065000000 0.0065000000 0.0065000000 0.0065000000 0.0065000000 0.0065000000 0.0065000000 0.0065000000 0.0065000000 0.0065000000 0.0065000000 0.0065000000 0.0065000000 0.0065000000 0.0065000000 0.0065000000 0.0065000000 0.0065000000 0.0065000000 0.0065000000 0.0065000000 0.0065000000 0.0065000000 0.0065000000 0.0065000000 0.0065000000 0.0065000000 0.0065000000 0.0065000000 0.0065000000 0.0065000000 0.0065000000 0.0065000000 0.0065000000 0.0065000000 0.0065000000 0.0065000000 0.0065000000 0.0065000000 0.0065000000 0.0065000000 0.0065000000 0.0065000000 0.0065000000 0.0065000000 0.0065000000 0.0065000000 0.0065000000 0.0065000000 0.0065000000 0.0065000000 0.0065000000 0.0065000000 0.0065000000 0.0065000000 0.0065000000 0.0065000000 0.0065000000 0.0065000000 0.0065000000 0.0065000000 0.0065000000 0.0065000000 0.0065000000 0.0065000000 0.0065000000 0.0065000000 0.0065000000 0.0065000000 0.0065000000 0.0065000000 0.0065000000 0.0065000000 0.0065000000 0.0065000000 0.0065000000 0.0065000000 0.0065000000 0.0065000000 0.0065000000 0.0065000000 0.0065000000 0.0065000000 0.0065000000 0.0065000000 0.0065000000 0.0065000000 0.0065000000 0.0065000000 0.0065000000 0.0065000000 0.0065000000 0.0065000000 0.0065000000 0.0065000000 0.0065000000 0.0065000000 0.0065000000 0.0065000000 0.0065000000 0.0065000000 0.0065000000 0.0065000000 0.0065000000 0.0065000000 0.0065000000 0.0065000000 0.0065000000 0.0065000000 0.0065000000 0.0065000000 0.0065000000 0.0065000000 0.0065000000 0.0065000000 0.0065000000 0.0065000000 0.0065000000 0.0065000000 0.0065000000 0.0065000000 0.0065000000 0.0065000000 0.0065000000 0.0065000000 0.0065000000 0.0065000000 0.0065000000 0.0065000000 0.0065000000 0.0065000000 0.0065000000 0.0065000000 0.0065000000 0.0065000000 0.0065000000 0.0065000000 0.0065000000 0.0065000000 0.0065000000 0.0065000000 0.0065000000 0.0065000000 0.0065000000 0.0065000000 0.0065000000 0.0065000000 0.0065000000 0.0065000000 0.0065000000 0.0065000000 0.0065000000 0.0065000000 0.0065000000 0.0065000000 0.0065000000 0.0065000000 0.0065000000 0.0065000000 0.0065000000 0.0065000000 0.0065000000 0.0065000000 0.0065000000 0.006500000