<?xml version="1.0"?>
<VTKFile type="UnstructuredGrid" version="0.1" byte_order="LittleEndian">
  <UnstructuredGrid>
    <FieldData>
      <DataArray type="Float32" Name="TIME"  NumberOfTuples="1" format="ascii"> 0.5496214438 </DataArray>
      <DataArray type="Int32"   Name="STEP"  NumberOfTuples="1" format="ascii"> 7370 </DataArray>
    </FieldData>
    <Piece NumberOfPoints="18081" NumberOfCells="18081">
      <Points>
        <DataArray type="Float32" NumberOfComponents="3" format="ascii">
 0.0688112514 0.0233946488 0.0038670407 0.0882195664 0.0253861668 -0.0000786136 0.0956317326 0.0237071560 -0.0004736390 0.1142490763 0.0235753745 0.0001142921 0.1341616239 0.0242172727 -0.0002776484 0.1451457577 0.0238841605 -0.0002779330 0.1880596162 0.0192446723 -0.0005002094 0.2162360519 0.0241626575 -0.0000895173 0.2660156577 0.0172219561 -0.0006960439 0.2993538397 0.0186425199 0.0041317624 0.3143961557 0.0191758089 0.0003930278 0.3585643553 0.0186870472 -0.0005447604 0.3854250535 0.0158745470 -0.0001219885 0.4407684670 0.0162455363 -0.0005199180 0.4895785393 0.0190904423 0.0028755616 0.4968255226 0.0134020135 0.0319693643 0.4976026169 0.0120198396 0.0456246912 0.4942519520 0.0130084940 0.0826917604 0.4783912759 -0.0001570753 0.0911485365 0.4947686620 0.0011758364 0.1060798452 0.4959563011 0.0052665664 0.1245119655 0.0693518747 0.0226534043 -0.0002128278 0.0773961334 0.0239036748 0.0000002286 0.0935897163 0.0259418564 0.0034259284 0.1119904860 0.0256223660 0.0048720761 0.1619079456 0.0285694146 0.0028399032 0.1987934343 0.0200711147 -0.0006823866 0.2286798557 0.0278556418 -0.0010873505 0.2710000268 0.0215379874 -0.0007873857 0.3102006665 0.0220538507 -0.0007960407 0.3496158711 0.0197396001 -0.0003202532 0.3773502765 0.0217146456 -0.0010512904 0.4141729751 0.0176715677 -0.0007883370 0.4693559074 0.0196484323 -0.0003090966 0.4975233010 0.0193105907 0.0114477082 0.4989576645 0.0179349690 0.0407885236 0.4968125408 0.0163383208 0.0604293771 0.4988003473 0.0131776274 0.0849449891 0.4855292456 0.0097893970 0.0915176215 0.4807469897 0.0069457143 0.0862794746 0.4790160550 0.0118963316 0.1052290250 0.5022857051 0.0346211030 0.1382740974 0.0770494735 0.0289164841 -0.0000195820 0.0834061878 0.0288025803 -0.0004712022 0.0924799949 0.0287567882 -0.0005113465 0.0980440905 0.0302591456 -0.0000285376 0.1206908130 0.0266051232 -0.0001430085 0.1721981989 0.0251522564 -0.0008022841 0.2122761255 0.0290395382 -0.0007479393 0.2569189136 0.0215988072 -0.0003556726 0.2881256069 0.0245052911 -0.0007365420 0.3268677594 0.0267645571 -0.0006083447 0.3638451206 0.0223334844 -0.0006373870 0.3963254683 0.0248388060 -0.0004703644 0.4332531416 0.0214048464 -0.0012282913 0.4838833653 0.0246862988 0.0029476566 0.4957091831 0.0168321496 -0.0010114523 0.4886768367 0.0160365569 0.0690311892 0.4970046266 0.0124477302 0.0762984234 0.4966955264 0.0143541959 0.0946400668 0.5011662150 0.0113380532 0.1167763889 0.5008145309 -0.0006402395 0.1188606726 0.4922452042 0.0054649088 0.1330351814 0.0683222935 0.0294489187 -0.0006653427 0.0799487727 0.0328232585 -0.0005980023 0.0984456169 0.0344838376 -0.0008389693 0.1129145691 0.0280043417 -0.0009188702 0.1508209263 0.0280461151 -0.0004236493 0.1892868140 0.0257777123 -0.0010068220 0.2214023548 0.0249384048 -0.0000005911 0.2632717951 0.0232658414 -0.0006407492 0.2981780562 0.0194630046 -0.0007912059 0.3439301943 0.0224124744 -0.0007048919 0.3741346024 0.0265179335 -0.0002315780 0.4210077187 0.0232089888 -0.0010010448 0.4634854837 0.0203326213 0.0004519821 0.4922054671 0.0166085514 0.0030811021 0.4970982179 0.0231118411 0.0467805563 0.4987276114 0.0141358538 0.0630917762 0.4901384783 0.0198377668 0.0819788924 0.4940084320 0.0259904329 0.0937967618 0.4901422801 0.0162001472 0.0952369380 0.4994253822 0.0033730678 0.1241833880 0.4992890164 0.0134934477 0.1291142046 0.0609078283 0.0306232686 -0.0008867597 0.0879142207 0.0316277133 -0.0005978075 0.1110738300 0.0329209252 -0.0002903736 0.1185820340 0.0310432402 -0.0003828997 0.1441979911 0.0314286809 -0.0008556716 0.1701368521 0.0301197946 -0.0005082629 0.2053203604 0.0299810687 -0.0004354817 0.2555494562 0.0267761685 -0.0006119412 0.2908126720 0.0328701006 0.0000351996 0.3327322489 0.0245318779 0.0000295452 0.3675151194 0.0275168701 -0.0002353837 0.4156371222 0.0272034052 -0.0001191390 0.4523337322 0.0260559997 -0.0006565835 0.4874414386 0.0336711347 0.0034734675 0.4989999177 0.0239707369 0.0239320593 0.4933156205 0.0251623393 0.0627967039 0.4918466012 0.0199663933 0.0859804891 0.4954821657 0.0295401404 0.0952534979 0.4992181025 0.0142878262 0.0901998912 0.4982639977 0.0204674318 0.1321568426 0.5020681373 0.0121124355 0.1330105479 0.0647091934 0.0343833000 -0.0001255953 0.0853392572 0.0365918798 -0.0007991281 0.1054256924 0.0347289124 -0.0007242693 0.1157659074 0.0359667168 -0.0007393713 0.1231887644 0.0324832169 -0.0006122228 0.1630691309 0.0367190152 -0.0007792671 0.2082486499 0.0328705189 0.0008048031 0.2558165888 0.0329416426 -0.0005733028 0.2802038062 0.0338140572 -0.0007318066 0.3137139293 0.0287957349 -0.0000940705 0.3607870250 0.0273024757 -0.0008303400 0.3998381177 0.0321192935 -0.0008264704 0.4391879446 0.0335851186 -0.0004954379 0.4876243005 0.0378031100 -0.0006798839 0.5001631965 0.0285810688 0.0119733075 0.4919770395 0.0298910083 0.0713102066 0.5015648389 0.0239913524 0.0644486078 0.4886572677 0.0257525048 0.0906107916 0.4896634197 0.0206367446 0.1000974201 0.5011798700 0.0284010777 0.1128591360 0.4979768493 0.0250869536 0.1262033407 0.0637215706 0.0385231414 -0.0003949747 0.0829376174 0.0424722181 -0.0011071250 0.1110106703 0.0392365963 -0.0004204014 0.1329667234 0.0379400371 -0.0004551981 0.1379947421 0.0406573073 -0.0003578766 0.1756916073 0.0330262223 -0.0006680344 0.2317861894 0.0352102608 -0.0007345171 0.2641667246 0.0343158604 -0.0009774618 0.2996057232 0.0331183977 -0.0000704502 0.3342425755 0.0356450274 -0.0010178049 0.3610563313 0.0380279777 -0.0005077564 0.4168063961 0.0384214915 -0.0008712162 0.4539382114 0.0373016471 -0.0003052799 0.4944786346 0.0309538882 0.0005570414 0.5001255719 0.0383872957 0.0232000507 0.5027916879 0.0320787103 0.0544795529 0.4891024102 0.0348492455 0.0802396363 0.4941649338 0.0261455242 0.0993354868 0.4847888515 0.0266671293 0.1023381131 0.5011510839 0.0300007619 0.1245982211 0.4885088650 0.0160667115 0.1253750034 0.0679639295 0.0429063441 -0.0006400869 0.0896103356 0.0432091711 -0.0001377768 0.1008459169 0.0401255930 -0.0003430041 0.1192168219 0.0397202750 -0.0006240799 0.1289649426 0.0413073064 -0.0006713746 0.1655266645 0.0477805896 -0.0004355781 0.2107202098 0.0356529728 -0.0002873145 0.2517167371 0.0462611622 -0.0007956810 0.2791787477 0.0390077783 -0.0008062859 0.3059596305 0.0412792216 -0.0005119559 0.3526595688 0.0388273276 -0.0006214338 0.4038542885 0.0366257130 -0.0008988406 0.4370194875 0.0453980065 -0.0002952368 0.4893464451 0.0369594345 0.0055031258 0.4996781983 0.0376905356 0.0065318909 0.4980605103 0.0391526045 0.0599551908 0.4887793595 0.0394799703 0.0816746824 0.4810106216 0.0376279836 0.0951492478 0.5002463905 0.0323065566 0.1044592993 0.4948269882 0.0396732946 0.1090682809 0.4955552542 0.0411871416 0.1291294688 0.0675874714 0.0478446137 -0.0000985934 0.0887703022 0.0487896586 -0.0004695098 0.1153474985 0.0456644378 -0.0012873608 0.1214200921 0.0440774334 0.0004283994 0.1327279495 0.0445170453 -0.0000185351 0.1774870070 0.0431182801 -0.0007115115 0.2264154490 0.0411808405 -0.0002732873 0.2615800739 0.0422564575 -0.0008251380 0.2895991582 0.0422760904 -0.0009765126 0.3260080628 0.0477969821 -0.0005216426 0.3651849346 0.0418405233 -0.0006427412 0.4255748990 0.0490121594 0.0001251733 0.4515569123 0.0473643657 -0.0005511597 0.4903325830 0.0420378853 0.0003628157 0.4984172651 0.0463219628 0.0319658470 0.5010416231 0.0440232353 0.0151112777 0.5019882104 0.0450802864 0.0881558345 0.4951721586 0.0339907140 0.1019779463 0.4998133537 0.0460207190 0.1060974753 0.5011066538 0.0520636038 0.1216218346 0.4860376748 0.0259122530 0.1208786449 0.0699602861 0.0523028560 -0.0007684944 0.0943727381 0.0534997466 -0.0008534945 0.1054595575 0.0480692614 -0.0006928254 0.1198227789 0.0491195420 -0.0000221119 0.1248821289 0.0464227491 -0.0006834745 0.1790377099 0.0489692735 -0.0009044317 0.2185215492 0.0467852706 -0.0001894982 0.2446444019 0.0481576268 -0.0003868844 0.2866534669 0.0471414598 -0.0002353312 0.3037769785 0.0452315143 -0.0004316974 0.3607902279 0.0481986093 -0.0009277414 0.4084333119 0.0476547201 -0.0002461407 0.4393554105 0.0505527768 -0.0005216894 0.4894041497 0.0505914241 0.0120618522 0.5003886636 0.0532891113 0.0110393840 0.5009089899 0.0510189331 0.0611375460 0.4958171664 0.0495423890 0.0846603556 0.4964092798 0.0442560166 0.0947907437 0.4991665984 0.0482111791 0.1092728838 0.4847051013 0.0527010781 0.1100058104 0.4899573961 0.0502900256 0.1225887688 0.0746898440 0.0587332630 -0.0010568507 0.0890489955 0.0590232199 -0.0009516538 0.1103145224 0.0510341419 -0.0008229150 0.1205852750 0.0540600394 -0.0001098694 0.1378936204 0.0534760616 -0.0008483128 0.1677214152 0.0515701263 -0.0004276996 0.2306539317 0.0544038344 -0.0005336828 0.2565206495 0.0552264426 -0.0002522439 0.2909448229 0.0534182685 -0.0006186142 0.3273447712 0.0531070846 -0.0006274810 0.3671736615 0.0527985596 -0.0008032793 0.4233149307 0.0574570668 -0.0001302182 0.4436540420 0.0551224801 -0.0005319879 0.4905159464 0.0523505696 0.0014607654 0.4970827219 0.0546206528 0.0341994842 0.5017258266 0.0548515830 0.0475447832 0.4972615625 0.0582405261 0.0816732097 0.4839526726 0.0499250686 0.0900701295 0.4982455578 0.0560357448 0.0880267180 0.4854307723 0.0577573764 0.1029835292 0.4950247953 0.0404342068 0.1249205462 0.0702547064 0.0627575873 -0.0007492467 0.0955632008 0.0646326881 -0.0007027362 0.1086567640 0.0564110180 -0.0003408167 0.1167966786 0.0588647270 -0.0006157261 0.1329943304 0.0583463248 -0.0004010995 0.1727610872 0.0560992640 -0.0008405482 0.2222442893 0.0575608813 -0.0010761724 0.2513029531 0.0576632851 -0.0005904504 0.2797475819 0.0564007310 -0.00091756
[...]
      <PointData Scalars="smoothLength">
        <DataArray type="Float32" Name="smoothLength" format="ascii">
 0.0065000000 0.0065000000 0.0065000000 0.0065000000 0.0065000000 0.0065000000 0.0065000000 0.0065000000 0.0065000000 0.0065000000 0.0065000000 0.0065000000 0.0065000000 0.0065000000 0.0065000000 0.0065000000 0.0065000000 0.0065000000 0.0065000000 0.0065000000 0.0065000000 0.0065000000 0.0065000000 0.0065000000 0.0065000000 0.0065000000 0.0065000000 0.0065000000 0.0065000000 0.0065000000 0.0065000000 0.0065000000 0.0065000000 0.0065000000 0.0065000000 0.0065000000 0.0065000000 0.0065000000 0.0065000000 0.0065000000 0.0065000000 0.0065000000 0.0065000000 0.0065000000 0.0065000000 0.0065000000 0.0065000000 0.0065000000 0.0065000000 0.0065000000 0.0065000000 0.0065000000 0.0065000000 0.0065000000 0.0065000000 0.0065000000 0.0065000000 0.0065000000 0.0065000000 0.0065000000 0.0065000000 0.0065000000 0.0065000000 0.0065000000 0.0065000000 0.0065000000 0.0065000000 0.0065000000 0.0065000000 0.0065000000 0.0065000000 0.0065000000 0.0065000000 0.0065000000 0.0065000000 0.0065000000 0.0065000000 0.0065000000 0.0065000000 0.0065000000 0.0065000000 0.0065000000 0.0065000000 0.0065000000 0.0065000000 0.0065000000 0.0065000000 0.0065000000 0.0065000000 0.0065000000 0.0065000000 0.0065000000 0.0065000000 0.0065000000 0.0065000000 0.0065000000 0.0065000000 0.0065000000 0.0065000000 0.0065000000 0.0065000000 0.0065000000 0.0065000000 0.0065000000 0.0065000000 0.0065000000 0.0065000000 0.0065000000 0.0065000000 0.0065000000 0.0065000000 0.0065000000 0.0065000000 0.0065000000 0.0065000000 0.0065000000 0.0065000000 0.0065000000 0.0065000000 0.0065000000 0.0065000000 0.0065000000 0.0065000000 0.0065000000 0.0065000000 0.0065000000 0.0065000000 0.0065000000 0.0065000000 0.0065000000 0.0065000000 0.0065000000 0.0065000000 0.0065000000 0.0065000000 0.0065000000 0.0065000000 0.0065000000 0.0065000000 0.0065000000 0.0065000000 0.0065000000 0.0065000000 0.0065000000 0.0065000000 0.0065000000 0.0065000000 0.0065000000 0.0065000000 0.0065000000 0.0065000000 0.0065000000 0.0065000000 0.0065000000 0.0065000000 0.0065000000 0.0065000000 0.0065000000 0.0065000000 0.0065000000 0.0065000000 0.0065000000 0.0065000000 0.0065000000 0.0065000000 0.0065000000 0.0065000000 0.0065000000 0.0065000000 0.0065000000 0.0065000000 0.0065000000 0.0065000000 0.0065000000 0.0065000000 0.0065000000 0.0065000000 0.0065000000 0.0065000000 0.0065000000 0.0065000000 0.0065000000 0.0065000000 0.0065000000 0.0065000000 0.0065000000 0.0065000000 0.0065000000 0.0065000000 0.0065000000 0.0065000000 0.0065000000 0.0065000000 0.0065000000 0.0065000000 0.0065000000 0.0065000000 0.0065000000 0.0065000000 0.0065000000 0.0065000000 0.0065000000 0.0065000000 0.0065000000 0.0065000000 0.0065000000 0.0065000000 0.0065000000 0.0065000000 0.0065000000 0.0065000000 0.0065000000 0.0065000000 0.0065000000 0.0065000000 0.0065000000 0.0065000000 0.0065000000 0.0065000000 0.0065000000 0.0065000000 0.0065000000 0.0065000000 0.0065000000 0.0065000000 0.0065000000 0.0065000000 0.0065000000 0.0065000000 0.0065000000 0.0065000000 0.0065000000 0.0065000000 0.0065000000 0.0065000000 0.0065000000 0.0065000000 0.0065000000 0.0065000000 0.0065000000 0.0065000000 0.0065000000 0.0065000000 0.0065000000 0.0065000000 0.0065000000 0.0065000000 0.0065000000 0.0065000000 0.0065000000 0.0065000000 0.0065000000 0.0065000000 0.0065000000 0.0065000000 0.0065000000 0.0065000000 0.0065000000 0.0065000000 0.0065000000 0.0065000000 0.0065000000 0.0065000000 0.0065000000 0.0065000000 0.0065000000 0.0065000000 0.0065000000 0.0065000000 0.0065000000 0.0065000000 0.0065000000 0.0065000000 0.0065000000 0.0065000000 0.0065000000 0.0065000000 0.0065000000 0.0065000000 0.0065000000 0.0065000000 0.0065000000 0.0065000000 0.0065000000 0.0065000000 0.0065000000 0.0065000000 0.0065000000 0.0065000000 0.0065000000 0.0065000000 0.0065000000 0.0065000000 0.0065000000 0.0065000000 0.0065000000 0.0065000000 0.0065000000 0.0065000000 0.0065000000 0.0065000000 0.0065000000 0.0065000000 0.0065000000 0.0065000000 0.0065000000 0.0065000000 0.0065000000 0.0065000000 0.0065000000 0.0065000000 0.0065000000 0.0065000000 0.0065000000 0.0065000000 0.0065000000 0.0065000000 0.0065000000 0.0065000000 0.0065000000 0.0065000000 0.0065000000 0.0065000000 0.0065000000 0.0065000000 0.0065000000 0.0065000000 0.0065000000 0.0065000000 0.0065000000 0.0065000000 0.0065000000 0.0065000000 0.0065000000 0.0065000000 0.0065000000 0.0065000000 0.0065000000 0.0065000000 0.0065000000 0.0065000000 0.0065000000 0.0065000000 0.0065000000 0.0065000000 0.0065000000 0.0065000000 0.0065000000 0.0065000000 0.0065000000 0.0065000000 0.0065000000 0.0065000000 0.0065000000 0.0065000000 0.0065000000 0.0065000000 0.0065000000 0.0065000000 0.0065000000 0.0065000000 0.0065000000 0.0065000000 0.0065000000 0.0065000000 0.0065000000 0.0065000000 0.0065000000 0.0065000000 0.0065000000 0.0065000000 0.0065000000 0.0065000000 0.0065000000 0.0065000000 0.0065000000 0.0065000000 0.0065000000 0.0065000000 0.0065000000 0.0065000000 0.0065000000 0.0065000000 0.0065000000 0.0065000000 0.0065000000 0.0065000000 0.0065000000 0.0065000000 0.0065000000 0.0065000000 0.0065000000 0.0065000000 0.0065000000 0.0065000000 0.0065000000 0.0065000000 0.0065000000 0.0065000000 0.0065000000 0.0065000000 0.0065000000 0.0065000000 0.0065000000 0.0065000000 0.0065000000 0.0065000000 0.0065000000 0.0065000000 0.0065000000 0.0065000000 0.0065000000 0.0065000000 0.0065000000 0.0065000000 0.0065000000 0.0065000000 0.0065000000 0.0065000000 0.0065000000 0.0065000000 0.0065000000 0.0065000000 0.0065000000 0.0065000000 0.0065000000 0.0065000000 0.0065000000 0.0065000000 0.0065000000 0.0065000000 0.0065000000 0.0065000000 0.0065000000 0.0065000000 0.0065000000 0.0065000000 0.0065000000 0.0065000000 0.0065000000 0.0065000000 0.0065000000 0.0065000000 0.0065000000 0.0065000000 0.0065000000 0.0065000000 0.0065000000 0.0065000000 0.0065000000 0.0065000000 0.0065000000 0.0065000000 0.0065000000 0.0065000000 0.0065000000 0.0065000000 0.0065000000 0.0065000000 0.0065000000 0.0065000000 0.0065000000 0.0065000000 0.0065000000 0.0065000000 0.0065000000 0.0065000000 0.0065000000 0.0065000000 0.0065000000 0.0065000000 0.0065000000 0.0065000000 0.0065000000 0.0065000000 0.0065000000 0.0065000000 0.0065000000 0.0065000000 0.0065000000 0.0065000000 0.0065000000 0.0065000000 0.0065000000 0.0065000000 0.0065000000 0.0065000000 0.0065000000 0.0065000000 0.0065000000 0.0065000000 0.0065000000 0.0065000000 0.0065000000 0.0065000000 0.0065000000 0.0065000000 0.0065000000 0.0065000000 0.0065000000 0.0065000000 0.0065000000 0.0065000000 0.0065000000 0.0065000000 0.0065000000 0.0065000000 0.0065000000 0.0065000000 0.0065000000 0.0065000000 0.0065000000 0.0065000000 0.0065000000 0.0065000000 0.0065000000 0.0065000000 0.0065000000 0.0065000000 0.0065000000 0.0065000000 0.0065000000 0.0065000000 0.0065000000 0.0065000000 0.0065000000 0.0065000000 0.0065000000 0.0065000000 0.0065000000 0.0065000000 0.0065000000 0.0065000000 0.0065000000 0.0065000000 0.0065000000 0.0065000000 0.0065000000 0.0065000000 0.0065000000 0.0065000000 0.0065000000 0.0065000000 0.0065000000 0.0065000000 0.0065000000 0.0065000000 0.0065000000 0.0065000000 0.0065000000 0.0065000000 0.0065000000 0.0065000000 0.0065000000 0.0065000000 0.0065000000 0.0065000000 0.0065000000 0.0065000000 0.0065000000 0.0065000000 0.0065000000 0.0065000000 0.0065000000 0.0065000000 0.0065000000 0.0065000000 0.0065000000 0.0065000000 0.0065000000 0.0065000000 0.0065000000 0.0065000000 0.0065000000 0.0065000000 0.0065000000 0.0065000000 0.0065000000 0.0065000000 0.0065000000 0.0065000000 0.0065000000 0.0065000000 0.0065000000 0.0065000000 0.0065000000 0.0065000000 0.0065000000 0.0065000000 0.0065000000 0.0065000000 0.0065000000 0.0065000000 0.0065000000 0.0065000000 0.0065000000 0.0065000000 0.0065000000 0.0065000000 0.0065000000 0.0065000000 0.0065000000 0.0065000000 0.0065000000 0.0065000000 0.0065000000 0.0065000000 0.0065000000 0.0065000000 0.0065000000 0.0065000000 0.0065000000 0.0065000000 0.0065000000 0.0065000000 0.0065000000 0.0065000000 0.0065000000 0.0065000000 0.0065000000 0.0065000000 0.0065000000 0.0065000000 0.0065000000 0.0065000000 0.0065000000 0.0065000000 0.0065000000 0.0065000000 0.0065000000 0.0065000000 0.0065000000 0.0065000000 0.0065000000 0.0065000000 0.0065000000 0.0065000000 0.0065000000 0.0065000000 0.0065000000 0.0065000000 0.0065000000 0.0065000000 0.0065000000 0.0065000000 0.0065000000 0.0065000000 0.0065000000 0.0065000000 0.0065000000 0.0065000000 0.0065000000 0.0065000000 0.0065000000 0.0065000000 0.0065000000 0.0065000000 0.0065000000 0.0065000000 0.0065000000 0.0065000000 0.0065000000 0.0065000000 0.0065000000 0.0065000000 0.0065000000 0.0065000000 0.0065000000 0.0065000000 0.0065000000 0.0065000000 0.0065000000 0.0065000000 0.0065000000 0.0065000000 0.0065000000 0.0065000000 0.0065000000 0.0065000000 0.0065000000 0.0065000000 0.0065000000 0.0065000000 0.0065000000 0.0065000000 0.0065000000 0.0065000000 0.0065000000 0.0065000000 0.0065000000 0.0065000000 0.0065000000 0.0065000000 0.0065000000 0.0065000000 0.0065000000 0.0065000000 0.0065000000 0.0065000000 0.0065000000 0.0065000000 0.0065000000 0.0065000000 0.0065000000 0.0065000000 0.0065000000 0.0065000000 0.0065000000 0.0065000000 0.0065000000 0.0065000000 0.0065000000 0.0065000000 0.0065000000 0.0065000000 0.0065000000 0.0065000000 0.0065000000 0.0065000000 0.0065000000 0.0065000000 0.0065000000 0.0065000000 0.0065000000 0.0065000000 0.0065000000 0.0065000000 0.0065000000 0.0065000000 0.0065000000 0.0065000000 0.0065000000 0.0065000000 0.0065000000 0.0065000000 0.0065000000 0.0065000000 0.0065000000 0.0065000000 0.0065000000 0.0065000000 0.0065000000 0.0065000000 0.0065000000 0.0065000000 0.0065000000 0.0065000000 0.0065000000 0.0065000000 0.0065000000 0.0065000000 0.0065000000 0.0065000000 0.0065000000 0.0065000000 0.0065000000 0.0065000000 0.0065000000 0.0065000000 0.0065000000 0.0065000000 0.0065000000 0.0065000000 0.0065000000 0.0065000000 0.0065000000 0.0065000000 0.0065000000 0.0065000000 0.0065000000 0.0065000000 0.0065000000 0.0065000000 0.0065000000 0.0065000000 0.0065000000 0.0065000000 0.0065000000 0.0065000000 0.0065000000 0.0065000000 0.0065000000 0.0065000000 0.0065000000 0.0065000000 0.0065000000 0.0065000000 0.0065000000 0.0065000000 0.0065000000 0.0065000000 0.0065000000 0.0065000000 0.0065000000 0.0065000000 0.0065000000 0.0065000000 0.0065000000 0.0065000000 0.0065000000 0.0065000000 0.0065000000 0.0065000000 0.0065000000 0.0065000000 0.0065000000 0.0065000000 0.0065000000 0.0065000000 0.0065000000 0.0065000000 0.0065000000 0.0065000000 0.0065000000 0.0065000000 0.0065000000 0.0065000000 0.0065000000 0.0065000000 0.0065000000 0.0065000000 0.0065000000 0.0065000000 0.0065000000 0.0065000000 0.0065000000 0.0065000000 0.0065000000 0.0065000000 0.0065000000 0.0065000000 0.0065000000 0.0065000000 0.0065000000 0.0065000000 0.0065000000 0.0065000000 0.0065000000 0.0065000000 0.0065000000 0.0065000000 0.0065000000 0.0065000000 0.0065000000 0.0065000000 0.0065000000 0.0065000000 0.0065000000 0.0065000000 0.0065000000 0.0065000000 0.0065000000 0.0065000000 0.0065000000 0.0065000000 0.0065000000 0.0065000000 0.0065000000 0.0065000000 0.0065000000 0.0065000000 0.0065000000 0.0065000000 0.0065000000 0.0065000000 0.0065000000 0.0065000000 0.0065000000 0.0065000000 0.0065000000 0.0065000000 0.0065000000 0.0065000000 0.0065000000 0.0065000000 0.0065000000 0.0065000000 0.0065000000 0.0065000000 0.0065000000 0.0065000000 0.0065000000 0.0065000000 0.0065000000 0.0065000000 0.0065000000 0.0065000000 0.0065000000 0.0065000000 0.0065000000 0.0065000000 0.0065000000 0.0065000000 0.0065000000 0.0065000000 0.0065000000 0.0065000000 0.0065000000 0.0065000000 0.0065000000 0.0065000000 0.0065000000 0.0065000000 0.0065000000 0.0065000000 0.0065000000 0.0065000000 0.0065000000 0.0065000000 0.0065000000 0.0065000000 0.0065000000 0.0065000000 0.0065000000 0.0065000000 0.0065000000 0.0065000000 0.0065000000 0.0065000000 0.0065000000 0.0065000000 0.0065000000 0.0065000000 0.0065000000 0.0065000000 0.0065000000 0.0065000000 0.0065000000 0.0065000000 0.0065000000 0.0065000000 0.0065000000 0.0065000000 0.0065000000 0.0065000000 0.0065000000 0.0065000000 0.0065000000 0.0065000000 0.0065000000 0.0065000000 0.0065000000 0.0065000000 0.0065000000 0.0065000000 0.0065000000 0.0065000000 0.0065000000 0.0065000000 0.0065000000 0.0065000000 0.0065000000 0.0065000000 0.0065000000 0.0065000000 0.0065000000 0.0065000000 0.0065000000 0.0065000000 0.0065000000 0.0065000000 0.0065000000 0.0065000000 0.0065000000 0.0065000000 0.0065000000 0.0065000000 0.0065000000 0.0065000000 0.0065000000 0.0065000000 0.0065000000 0.0065000000 0.0065000000 0.0065000000 0.0065000000 0.0065000000 0.0065000000 0.0065000000 0.0065000000 0.0065000000 0.0065000000 0.0065000000 0.0065000000 0.0065000000 0.0065000000 0.0065000000 0.0065000000 0.0065000000 0.0065000000 0.0065000000 0.0065000000 0.0065000000 0.0065000000 0.0065000000 0.0065000000 0.0065000000 0.0065000000 0.0065000000 0.0065000000 0.0065000000 0.0065000000 0.0065000000 0.0065000000 0.0065000000 0.0065000000 0.0065000000 0.0065000000 0.0065000000 0.0065000000 0.0065000000 0.0065000000 0.0065000000 0.0065000000 0.0065000000 0.0065000000 0.0065000000 0.0065000000 0.0065000000 0.0065000000 0.0065000000 0.0065000000 0.0065000000 0.0065000000 0.0065000000 0.0065000000 0.0065000000 0.0065000000 0.0065000000 0.0065000000 0.0065000000 0.0065000000 0.0065000000 0.0065000000 0.0065000000 0.0065000000 0.0065000000 0.0065000000 0.0065000000 0.0065000000 0.0065000000 0.0065000000 0.0065000000 0.0065000000 0.0065000000 0.0065000000 0.0065000000 0.0065000000 0.0065000000 0.0065000000 0.0065000000 0.0065000000 0.0065000000 0.0065000000 0.0065000000 0.0065000000 0.0065000000 0.0065000000 0.0065000000 0.0065000000 0.0065000000 0.0065000000 0.0065000000 0.0065000000 0.0065000000 0.0065000000 0.0065000000 0.0065000000 0.0065000000 0.0065000000 0.0065000000 0.0065000000 0.0065000000 0.0065000000 0.0065000000 0.0065000000 0.0065000000 0.0065000000 0.0065000000 0.0065000000 0.0065000000 0.0065000000 0.0065000000 0.0065000000 0.0065000000 0.0065000000 0.0065000000 0.0065000000 0.0065000000 0.0065000000 0.0065000000 0.0065000000 0.0065000000 0.0065000000 0.0065000000 0.0065000000 0.0065000000 0.0065000000 0.0065000000 0.0065000000 0.0065000000 0.0065000000 0.0065000000 0.0065000000 0.0065000000 0.0065000000 0.0065000000 0.0065000000 0.0065000000 0.0065000000 0.0065000000 0.0065000000 0.0065000000 0.0065000000 0.0065000000 0.0065000000 0.0065000000 0.0065000000 0.0065000000 0.0065000000 0.0065000000 0.0065000000 0.0065000000 0.0065000000 0.0065000000 0.0065000000 0.0065000000 0.0065000000 0.0065000000 0.0065000000 0.0065000000 0.0065000000 0.0065000000 0.0065000000 0.0065000000 0.0065000000 0.0065000000 0.0065000000 0.0065000000 0.0065000000 0.0065000000 0.0065000000 0.0065000000 0.0065000000 0.0065000000 0.0065000000 0.0065000000 0.0065000000 0.0065000000 0.0065000000 0.0065000000 0.0065000000 0.0065000000 0.0065000000 0.0065000000 0.0065000000 0.0065000000 0.0065000000 0.0065000000 0.0065000000 0.0065000000 0.0065000000 0.0065000000 0.0065000000 0.0065000000 0.0065000000 0.0065000000 0.0065000000 0.0065000000 0.0065000000 0.0065000000 0.0065000000 0.0065000000 0.0065000000 0.0065000000 0.0065000000 0.0065000000 0.0065000000 0.0065000000 0.0065000000 0.0065000000 0.0065000000 0.0065000000 0.0065000000 0.0065000000 0.0065000000 0.0065000000 0.0065000000 0.0065000000 0.0065000000 0.0065000000 0.0065000000 0.0065000000 0.0065000000 0.0065000000 0.0065000000 0.0065000000 0.0065000000 0.0065000000 0.0065000000 0.0065000000 0.0065000000 0.0065000000 0.0065000000 0.0065000000 0.0065000000 0.0065000000 0.0065000000 0.0065000000 0.0065000000 0.0065000000 0.0065000000 0.0065000000 0.0065000000 0.0065000000 0.0065000000 0.0065000000 0.0065000000 0.0065000000 0.0065000000 0.0065000000 0.0065000000 0.0065000000 0.0065000000 0.0065000000 0.0065000000 0.0065000000 0.0065000000 0.0065000000 0.0065000000 0.0065000000 0.0065000000 0.0065000000 0.0065000000 0.0065000000 0.0065000000 0.0065000000 0.0065000000 0.0065000000 0.0065000000 0.0065000000 0.0065000000 0.0065000000 0.0065000000 0.0065000000 0.0065000000 0.0065000000 0.0065000000 0.0065000000 0.0065000000 0.0065000000 0.0065000000 0.0065000000 0.0065000000 0.0065000000 0.0065000000 0.0065000000 0.0065000000 0.0065000000 0.0065000000 0.0065000000 0.0065000000 0.0065000000 0.0065000000 0.0065000000 0.0065000000 0.0065000000 0.0065000000 0.0065000000 0.0065000000 0.0065000000 0.0065000000 0.0065000000 0.0065000000 0.0065000000 0.0065000000 0.0065000000 0.0065000000 0.0065000000 0.0065000000 0.0065000000 0.0065000000 0.0065000000 0.0065000000 0.0065000000 0.0065000000 0.0065000000 0.0065000000 0.0065000000 0.0065000000 0.0065000000 0.0065000000 0.0065000000 0.0065000000 0.0065000000 0.0065000000 0.0065000000 0.0065000000 0.0065000000 0.0065000000 0.0065000000 0.0065000000 0.0065000000 0.0065000000 0.0065000000 0.0065000000 0.0065000000 0.0065000000 0.0065000000 0.0065000000 0.0065000000 0.0065000000 0.0065000000 0.0065000000 0.0065000000 0.0065000000 0.0065000000 0.0065000000 0.0065000000 0.0065000000 0.0065000000 0.0065000000 0.0065000000 0.0065000000 0.0065000000 0.0065000000 0.0065000000 0.0065000000 0.0065000000 0.0065000000 0.0065000000 0.0065000000 0.0065000000 0.0065000000 0.0065000000 0.0065000000 0.0065000000 0.0065000000 0.0065000000 0.0065000000 0.0065000000 0.0065000000 0.0065000000 0.0065000000 0.0065000000 0.0065000000 0.0065000000 0.0065000000 0.0065000000 0.0065000000 0.0065000000 0.0065000000 0.0065000000 0.0065000000 0.0065000000 0.0065000000 0.0065000000 0.0065000000 0.0065000000 0.0065000000 0.0065000000 0.0065000000 0.0065000000 0.0065000000 0.0065000000 0.0065000000 0.0065000000 0.0065000000 0.0065000000 0.0065000000 0.0065000000 0.0065000000 0.0065000000 0.0065000000 0.0065000000 0.0065000000 0.0065000000 0.0065000000 0.0065000000 0.0065000000 0.0065000000 0.0065000000 0.0065000000 0.0065000000 0.0065000000 0.0065000000 0.0065000000 0.0065000000 0.0065000000 0.0065000000 0.0065000000 0.0065000000 0.0065000000 0.0065000000 0.0065000000 0.0065000000 0.0065000000 0.0065000000 0.0065000000 0.0065000000 0.0065000000 0.0065000000 0.0065000000 0.0065000000 0.0065000000 0.0065000000 0.0065000000 0.0065000000 0.0065000000 0.0065000000 0.0065000000 0.0065000000 0.0065000000 0.0065000000 0.0065000000 0.0065000000 0.0065000000 0.0065000000 0.0065000000 0.0065000000 0.0065000000 0.0065000000 0.0065000000 0.0065000000 0.0065000000 0.0065000000 0.0065000000 0.0065000000 0.0065000000 0.0065000000 0.0065000000 0.0065000000 0.0065000000 0.0065000000 0.0065000000 0.0065000000 0.0065000000 0.0065000000 0.0065000000 0.0065000000 0.0065000000 0.0065000000 0.0065000000 0.0065000000 0.0065000000 0.0065000000 0.0065000000 0.0065000000 0.0065000000 0.0065000000 0.0065000000 0.0065000000 0.0065000000 0.0065000000 0.0065000000 0.0065000000 0.0065000000 0.0065000000 0.0065000000 0.0065000000 0.0065000000 0.0065000000 0.0065000000 0.0065000000 0.0065000000 0.0065000000 0.0065000000 0.0065000000 0.0065000000 0.0065000000 0.0065000000 0.0065000000 0.0065000000 0.0065000000 0.0065000000 0.0065000000 0.0065000000 0.0065000000 0.0065000000 0.0065000000 0.0065000000 0.0065000000 0.0065000000 0.0065000000 0.0065000000 0.0065000000 0.0065000000 0.0065000000 0.0065000000 0.0065000000 0.0065000000 0.0065000000 0.0065000000 0.0065000000 0.0065000000 0.0065000000 0.0065000000 0.0065000000 0.0065000000 0.0065000000 0.0065000000 0.0065000000 0.0065000000 0.0065000000 0.0065000000 0.0065000000 0.0065000000 0.0065000000 0.0065000000 0.0065000000 0.0065000000 0.0065000000 0.0065000000 0.0065000000 0.0065000000 0.0065000000 0.0065000000 0.0065000000 0.0065000000 0.0065000000 0.0065000000 0.0065000000 0.0065000000 0.0065000000 0.0065000000 0.0065000000 0.0065000000 0.0065000000 0.0065000000 0.006500000