<?xml version="1.0"?>
<VTKFile type="UnstructuredGrid" version="0.1" byte_order="LittleEndian">
  <UnstructuredGrid>
    <FieldData>
      <DataArray type="Float32" Name="TIME"  NumberOfTuples="1" format="ascii"> 0.2997935148 </DataArray>
      <DataArray type="Int32"   Name="STEP"  NumberOfTuples="1" format="ascii"> 4020 </DataArray>
    </FieldData>
    <Piece NumberOfPoints="18081" NumberOfCells="18081">
      <Points>
        <DataArray type="Float32" NumberOfComponents="3" format="ascii">
 0.0250174636 0.0120915013 0.0000055042 0.0344859038 0.0135291567 -0.0004454867 0.0405391507 0.0138470904 0.0000244537 0.0534830602 0.0111191093 -0.0003532253 0.0620084219 0.0129358028 -0.0005430123 0.0675989432 0.0161787242 -0.0006700662 0.0861945874 0.0112479581 -0.0002766041 0.0989910085 0.0161173453 -0.0006026379 0.1166280945 0.0141980081 -0.0006861480 0.1336145143 0.0151781553 0.0010794791 0.1458046093 0.0141639682 -0.0001972167 0.1698019846 0.0137900686 -0.0007695075 0.1850804543 0.0110671404 -0.0004154221 0.2133755421 0.0114273129 0.0016167165 0.2464166214 0.0131953000 0.0001950616 0.2716459463 0.0092007218 -0.0006990204 0.3065274274 0.0081039445 -0.0004959716 0.3424901146 0.0089986114 -0.0002854188 0.3918583310 0.0058798498 -0.0003962524 0.4314322461 0.0022164409 0.0005510751 0.4727287942 0.0009198240 -0.0000552767 0.0237872886 0.0157416255 -0.0002090589 0.0296119974 0.0150032083 0.0012012064 0.0388798756 0.0178786273 0.0005523342 0.0491757324 0.0140960563 -0.0009295827 0.0725162921 0.0197055872 -0.0003126050 0.0878726067 0.0160963856 -0.0001393048 0.1043460829 0.0189877469 -0.0000952691 0.1234310863 0.0160132708 -0.0005194733 0.1416746922 0.0160865013 -0.0000895525 0.1628045865 0.0150808400 -0.0001449645 0.1770835953 0.0152365783 0.0005869360 0.2016146631 0.0162962462 0.0001786055 0.2310796738 0.0166179328 -0.0003896340 0.2638893397 0.0143489379 0.0008112467 0.2878780112 0.0170056794 -0.0000050727 0.3078969967 0.0132387906 0.0000511226 0.3514740162 0.0091916904 -0.0012992737 0.3972223941 0.0110139532 0.0013308892 0.4240009251 0.0065657462 -0.0019129773 0.4567839310 0.0017701512 -0.0006310657 0.5003414939 0.0066393026 0.0126460671 0.0284716001 0.0192092453 0.0003024205 0.0338511548 0.0184768580 -0.0005625937 0.0380940956 0.0221934214 0.0006865639 0.0431029562 0.0212067192 -0.0002686142 0.0557425578 0.0178688206 -0.0002317168 0.0763536798 0.0172224583 -0.0001643577 0.0956940533 0.0202785808 -0.0001630899 0.1148378175 0.0185558092 0.0003293860 0.1317721077 0.0192035511 -0.0006388392 0.1493066357 0.0181275200 0.0001103419 0.1733212112 0.0191011483 -0.0003880653 0.1907122745 0.0201042450 -0.0010601935 0.2123132443 0.0205170345 -0.0003871721 0.2379479156 0.0178998784 0.0003139667 0.2575258530 0.0174572292 -0.0006003468 0.3030561191 0.0179773863 0.0032678751 0.3552998410 0.0167593907 -0.0014355562 0.3959413657 0.0159940134 -0.0002729871 0.4358315658 0.0100105889 0.0006708823 0.4716503804 0.0063075819 -0.0012960994 0.4998084548 0.0061558052 0.0000416980 0.0244445201 0.0218027436 -0.0007620448 0.0303573483 0.0236555209 -0.0000680415 0.0413023476 0.0263215052 -0.0001742212 0.0516758683 0.0200531341 -0.0004132373 0.0661900202 0.0208850803 0.0001882440 0.0828604553 0.0199586905 -0.0009798626 0.1017357579 0.0228512239 -0.0005433302 0.1200588228 0.0207523907 -0.0010298482 0.1386371827 0.0195022456 -0.0003382854 0.1591197922 0.0178131435 -0.0006265406 0.1770283581 0.0207278636 -0.0004408336 0.2008987385 0.0208110159 -0.0007332138 0.2264187857 0.0197066985 -0.0009141616 0.2508536658 0.0171436227 -0.0004099794 0.2857005268 0.0206474366 -0.0005908735 0.3113813104 0.0198386891 -0.0007917014 0.3434420370 0.0196647624 -0.0009863986 0.3890854979 0.0187769989 -0.0007794172 0.4153021474 0.0163285701 -0.0007280153 0.4764992950 0.0115886242 -0.0009858704 0.5004315050 0.0106900606 0.0038371991 0.0212169602 0.0250805805 0.0005053238 0.0352463468 0.0265700415 -0.0006426747 0.0475147403 0.0278970837 -0.0003541530 0.0531459053 0.0253594433 -0.0002771506 0.0627318332 0.0282995489 -0.0005520897 0.0775852543 0.0245473788 -0.0009647284 0.0947174370 0.0246915905 -0.0005278501 0.1150891551 0.0238100165 -0.0003034044 0.1331817537 0.0241157049 -0.0008165908 0.1524793390 0.0223517022 -0.0009993232 0.1713474323 0.0250633836 -0.0005887699 0.1971910382 0.0256729754 -0.0005170473 0.2214034595 0.0230877514 -0.0007493586 0.2426331290 0.0281990804 0.0000145271 0.2765443936 0.0219506003 -0.0010686346 0.3025892019 0.0268225021 -0.0006921822 0.3534603091 0.0232918363 -0.0012775397 0.3972914298 0.0220189676 -0.0009762238 0.4358450948 0.0207837966 -0.0007333930 0.4763893694 0.0198355183 -0.0006175428 0.4997644391 0.0161929794 0.0049932741 0.0236911746 0.0298121297 -0.0005633619 0.0338438418 0.0320208243 -0.0006285269 0.0423380933 0.0308972122 -0.0007923225 0.0518738371 0.0310604887 -0.0003647193 0.0570514508 0.0307081405 -0.0003967989 0.0735838839 0.0326010135 -0.0005867150 0.0924506415 0.0297474516 -0.0005406419 0.1106630715 0.0301571934 -0.0007666699 0.1257141936 0.0286481593 -0.0006103071 0.1425179883 0.0292435303 -0.0005957813 0.1671672514 0.0273893220 -0.0004831862 0.1887741357 0.0293020854 -0.0003882094 0.2106899893 0.0307557145 -0.0009254118 0.2408780852 0.0340472965 -0.0005824165 0.2737962347 0.0277419521 -0.0008308006 0.3096649105 0.0291345162 -0.0005787258 0.3585261999 0.0297842048 -0.0002027606 0.3892536662 0.0286357491 -0.0009283077 0.4251521147 0.0256930912 -0.0008680934 0.4775463395 0.0255330617 -0.0010101891 0.5004027765 0.0220063173 0.0056282343 0.0231000636 0.0362381878 -0.0007186311 0.0360255447 0.0371445535 -0.0010472927 0.0472349120 0.0344624742 -0.0004032484 0.0563640925 0.0356413904 -0.0002825680 0.0642254550 0.0369500354 -0.0004235586 0.0792992626 0.0333266722 0.0000644173 0.1013185716 0.0327410553 -0.0008688657 0.1172718066 0.0323180134 -0.0003966455 0.1345129201 0.0334645241 -0.0005242398 0.1558158707 0.0342312683 -0.0006853332 0.1705015185 0.0356757798 -0.0011673014 0.1983285686 0.0368240678 0.0001034768 0.2188829193 0.0353818689 -0.0010330228 0.2498169726 0.0334042375 -0.0005892091 0.2771293393 0.0339580854 -0.0007814402 0.3104946673 0.0340640343 -0.0004218378 0.3454333211 0.0343774835 -0.0008748646 0.3963452924 0.0325613430 -0.0007559550 0.4318226352 0.0315088017 -0.0013395227 0.4763061189 0.0302441280 -0.0003423019 0.5001213936 0.0274447194 0.0033799094 0.0220643805 0.0409483080 -0.0003450335 0.0355769352 0.0426483139 -0.0004212294 0.0438714743 0.0382396016 -0.0004586102 0.0507058194 0.0393041717 -0.0005684159 0.0568926122 0.0395019059 0.0001349018 0.0737576763 0.0427064063 -0.0005452450 0.0952732990 0.0387607679 -0.0008744102 0.1104184821 0.0404844798 -0.0003411620 0.1280591566 0.0379927109 -0.0010367231 0.1419676337 0.0407643798 -0.0003623777 0.1645085840 0.0388389112 -0.0006778051 0.1904734286 0.0378128640 -0.0010496478 0.2087905180 0.0398213014 -0.0009516658 0.2448829922 0.0387452177 -0.0002508172 0.2746671495 0.0388430596 -0.0009540679 0.3091158588 0.0396267264 -0.0000238362 0.3544114427 0.0374617039 -0.0011561323 0.3915695936 0.0378818321 0.0012075501 0.4277253626 0.0367831981 -0.0008381180 0.4768009248 0.0356302046 -0.0007835838 0.5002284585 0.0323788755 0.0026043521 0.0249749796 0.0469520457 -0.0008464518 0.0347723086 0.0474131771 0.0001906101 0.0484708780 0.0440687509 -0.0004687578 0.0540893417 0.0442706085 -0.0003304783 0.0606596199 0.0440624625 -0.0009813190 0.0805272174 0.0438880366 -0.0005341821 0.0994027227 0.0433852666 -0.0008111141 0.1162052586 0.0429438595 -0.0008180717 0.1321494780 0.0430627333 -0.0007576099 0.1487732533 0.0445871776 -0.0011672214 0.1682297958 0.0436470828 -0.0004916520 0.2012780152 0.0460840608 -0.0000866558 0.2170062866 0.0432329493 -0.0007581527 0.2449362235 0.0441447492 -0.0006877315 0.2755040761 0.0442266066 -0.0008029659 0.3116846862 0.0443744123 -0.0007295203 0.3517981016 0.0426814434 -0.0008272970 0.3946187087 0.0429333690 -0.0001742859 0.4288368328 0.0422813369 -0.0012102093 0.4769519751 0.0405201142 -0.0006092132 0.5002954585 0.0378959876 0.0025798711 0.0232133025 0.0527106639 -0.0007153536 0.0375762999 0.0529573027 -0.0003118846 0.0448500113 0.0471114425 -0.0001231178 0.0521413748 0.0497868320 -0.0005513534 0.0576787447 0.0486713186 -0.0001829334 0.0780274840 0.0488400503 -0.0010146278 0.0950904700 0.0485498523 -0.0008498097 0.1106999584 0.0487202556 -0.0007807170 0.1302223307 0.0473341188 -0.0003987589 0.1417579439 0.0493051535 -0.0006082693 0.1654558748 0.0489426793 -0.0009433962 0.1928477540 0.0496291594 -0.0007206846 0.2102378309 0.0489082910 0.0000708914 0.2433255951 0.0503882033 0.0008084534 0.2756091295 0.0499234806 -0.0007557385 0.3096428074 0.0494499115 -0.0002698416 0.3512333515 0.0482598673 -0.0008008944 0.3933113792 0.0481668299 -0.0007412972 0.4300995641 0.0474746875 -0.0005601839 0.4760106727 0.0455195902 -0.0008293527 0.5003199203 0.0431984838 0.0024432628 0.0263033096 0.0575734156 -0.0001931894 0.0349682924 0.0566573839 -0.0001544682 0.0476514785 0.0527985547 -0.0006357321 0.0533127799 0.0553452457 -0.0005115299 0.0617372365 0.0527935776 -0.0006963786 0.0752571596 0.0532786848 -0.0004319078 0.1002789260 0.0520534451 -0.0011941140 0.1145431856 0.0525487469 -0.0007718870 0.1336073318 0.0530456119 -0.0007016930 0.1498275187 0.0539877997 -0.0003551896 0.1678985703 0.0538061429 -0.0005985923 0.2033129881 0.0555432687 0.0000918833 0.2143653787 0.0525835312 -0.0007108996 0.2458753674 0.0537587411 -0.0004795267 0.2747629014 0.0548282819 -0.0004858556 0.3100354173 0.0545964857 -0.0002298827 0.3527356852 0.0534990456 -0.0007136662 0.3938365686 0.0532217633 0.0002489331 0.4273443429 0.0521087572 -0.0009591926 0.4772773363 0.0503967782 -0.0006190715 0.5003177769 0.0485171793 0.0024483725 0.0240608763 0.0622218813 -0.0002237214 0.0372447814 0.0620684884 -0.0005034359 0.0453316728 0.0578636830 -0.0006409748 0.0520527823 0.0596405755 0.0001245435 0.0608119054 0.0581885329 -0.0007247970 0.0757732743 0.0585879525 -0.0007460505 0.0962952191 0.0579064693 -0.0011107157 0.1145435614 0.05816715
[...]
      <PointData Scalars="smoothLength">
        <DataArray type="Float32" Name="smoothLength" format="ascii">
 0.0065000000 0.0065000000 0.0065000000 0.0065000000 0.0065000000 0.0065000000 0.0065000000 0.0065000000 0.0065000000 0.0065000000 0.0065000000 0.0065000000 0.0065000000 0.0065000000 0.0065000000 0.0065000000 0.0065000000 0.0065000000 0.0065000000 0.0065000000 0.0065000000 0.0065000000 0.0065000000 0.0065000000 0.0065000000 0.0065000000 0.0065000000 0.0065000000 0.0065000000 0.0065000000 0.0065000000 0.0065000000 0.0065000000 0.0065000000 0.0065000000 0.0065000000 0.0065000000 0.0065000000 0.0065000000 0.0065000000 0.0065000000 0.0065000000 0.0065000000 0.0065000000 0.0065000000 0.0065000000 0.0065000000 0.0065000000 0.0065000000 0.0065000000 0.0065000000 0.0065000000 0.0065000000 0.0065000000 0.0065000000 0.0065000000 0.0065000000 0.0065000000 0.0065000000 0.0065000000 0.0065000000 0.0065000000 0.0065000000 0.0065000000 0.0065000000 0.0065000000 0.0065000000 0.0065000000 0.0065000000 0.0065000000 0.0065000000 0.0065000000 0.0065000000 0.0065000000 0.0065000000 0.0065000000 0.0065000000 0.0065000000 0.0065000000 0.0065000000 0.0065000000 0.0065000000 0.0065000000 0.0065000000 0.0065000000 0.0065000000 0.0065000000 0.0065000000 0.0065000000 0.0065000000 0.0065000000 0.0065000000 0.0065000000 0.0065000000 0.0065000000 0.0065000000 0.0065000000 0.0065000000 0.0065000000 0.0065000000 0.0065000000 0.0065000000 0.0065000000 0.0065000000 0.0065000000 0.0065000000 0.0065000000 0.0065000000 0.0065000000 0.0065000000 0.0065000000 0.0065000000 0.0065000000 0.0065000000 0.0065000000 0.0065000000 0.0065000000 0.0065000000 0.0065000000 0.0065000000 0.0065000000 0.0065000000 0.0065000000 0.0065000000 0.0065000000 0.0065000000 0.0065000000 0.0065000000 0.0065000000 0.0065000000 0.0065000000 0.0065000000 0.0065000000 0.0065000000 0.0065000000 0.0065000000 0.0065000000 0.0065000000 0.0065000000 0.0065000000 0.0065000000 0.0065000000 0.0065000000 0.0065000000 0.0065000000 0.0065000000 0.0065000000 0.0065000000 0.0065000000 0.0065000000 0.0065000000 0.0065000000 0.0065000000 0.0065000000 0.0065000000 0.0065000000 0.0065000000 0.0065000000 0.0065000000 0.0065000000 0.0065000000 0.0065000000 0.0065000000 0.0065000000 0.0065000000 0.0065000000 0.0065000000 0.0065000000 0.0065000000 0.0065000000 0.0065000000 0.0065000000 0.0065000000 0.0065000000 0.0065000000 0.0065000000 0.0065000000 0.0065000000 0.0065000000 0.0065000000 0.0065000000 0.0065000000 0.0065000000 0.0065000000 0.0065000000 0.0065000000 0.0065000000 0.0065000000 0.0065000000 0.0065000000 0.0065000000 0.0065000000 0.0065000000 0.0065000000 0.0065000000 0.0065000000 0.0065000000 0.0065000000 0.0065000000 0.0065000000 0.0065000000 0.0065000000 0.0065000000 0.0065000000 0.0065000000 0.0065000000 0.0065000000 0.0065000000 0.0065000000 0.0065000000 0.0065000000 0.0065000000 0.0065000000 0.0065000000 0.0065000000 0.0065000000 0.0065000000 0.0065000000 0.0065000000 0.0065000000 0.0065000000 0.0065000000 0.0065000000 0.0065000000 0.0065000000 0.0065000000 0.0065000000 0.0065000000 0.0065000000 0.0065000000 0.0065000000 0.0065000000 0.0065000000 0.0065000000 0.0065000000 0.0065000000 0.0065000000 0.0065000000 0.0065000000 0.0065000000 0.0065000000 0.0065000000 0.0065000000 0.0065000000 0.0065000000 0.0065000000 0.0065000000 0.0065000000 0.0065000000 0.0065000000 0.0065000000 0.0065000000 0.0065000000 0.0065000000 0.0065000000 0.0065000000 0.0065000000 0.0065000000 0.0065000000 0.0065000000 0.0065000000 0.0065000000 0.0065000000 0.0065000000 0.0065000000 0.0065000000 0.0065000000 0.0065000000 0.0065000000 0.0065000000 0.0065000000 0.0065000000 0.0065000000 0.0065000000 0.0065000000 0.0065000000 0.0065000000 0.0065000000 0.0065000000 0.0065000000 0.0065000000 0.0065000000 0.0065000000 0.0065000000 0.0065000000 0.0065000000 0.0065000000 0.0065000000 0.0065000000 0.0065000000 0.0065000000 0.0065000000 0.0065000000 0.0065000000 0.0065000000 0.0065000000 0.0065000000 0.0065000000 0.0065000000 0.0065000000 0.0065000000 0.0065000000 0.0065000000 0.0065000000 0.0065000000 0.0065000000 0.0065000000 0.0065000000 0.0065000000 0.0065000000 0.0065000000 0.0065000000 0.0065000000 0.0065000000 0.0065000000 0.0065000000 0.0065000000 0.0065000000 0.0065000000 0.0065000000 0.0065000000 0.0065000000 0.0065000000 0.0065000000 0.0065000000 0.0065000000 0.0065000000 0.0065000000 0.0065000000 0.0065000000 0.0065000000 0.0065000000 0.0065000000 0.0065000000 0.0065000000 0.0065000000 0.0065000000 0.0065000000 0.0065000000 0.0065000000 0.0065000000 0.0065000000 0.0065000000 0.0065000000 0.0065000000 0.0065000000 0.0065000000 0.0065000000 0.0065000000 0.0065000000 0.0065000000 0.0065000000 0.0065000000 0.0065000000 0.0065000000 0.0065000000 0.0065000000 0.0065000000 0.0065000000 0.0065000000 0.0065000000 0.0065000000 0.0065000000 0.0065000000 0.0065000000 0.0065000000 0.0065000000 0.0065000000 0.0065000000 0.0065000000 0.0065000000 0.0065000000 0.0065000000 0.0065000000 0.0065000000 0.0065000000 0.0065000000 0.0065000000 0.0065000000 0.0065000000 0.0065000000 0.0065000000 0.0065000000 0.0065000000 0.0065000000 0.0065000000 0.0065000000 0.0065000000 0.0065000000 0.0065000000 0.0065000000 0.0065000000 0.0065000000 0.0065000000 0.0065000000 0.0065000000 0.0065000000 0.0065000000 0.0065000000 0.0065000000 0.0065000000 0.0065000000 0.0065000000 0.0065000000 0.0065000000 0.0065000000 0.0065000000 0.0065000000 0.0065000000 0.0065000000 0.0065000000 0.0065000000 0.0065000000 0.0065000000 0.0065000000 0.0065000000 0.0065000000 0.0065000000 0.0065000000 0.0065000000 0.0065000000 0.0065000000 0.0065000000 0.0065000000 0.0065000000 0.0065000000 0.0065000000 0.0065000000 0.0065000000 0.0065000000 0.0065000000 0.0065000000 0.0065000000 0.0065000000 0.0065000000 0.0065000000 0.0065000000 0.0065000000 0.0065000000 0.0065000000 0.0065000000 0.0065000000 0.0065000000 0.0065000000 0.0065000000 0.0065000000 0.0065000000 0.0065000000 0.0065000000 0.0065000000 0.0065000000 0.0065000000 0.0065000000 0.0065000000 0.0065000000 0.0065000000 0.0065000000 0.0065000000 0.0065000000 0.0065000000 0.0065000000 0.0065000000 0.0065000000 0.0065000000 0.0065000000 0.0065000000 0.0065000000 0.0065000000 0.0065000000 0.0065000000 0.0065000000 0.0065000000 0.0065000000 0.0065000000 0.0065000000 0.0065000000 0.0065000000 0.0065000000 0.0065000000 0.0065000000 0.0065000000 0.0065000000 0.0065000000 0.0065000000 0.0065000000 0.0065000000 0.0065000000 0.0065000000 0.0065000000 0.0065000000 0.0065000000 0.0065000000 0.0065000000 0.0065000000 0.0065000000 0.0065000000 0.0065000000 0.0065000000 0.0065000000 0.0065000000 0.0065000000 0.0065000000 0.0065000000 0.0065000000 0.0065000000 0.0065000000 0.0065000000 0.0065000000 0.0065000000 0.0065000000 0.0065000000 0.0065000000 0.0065000000 0.0065000000 0.0065000000 0.0065000000 0.0065000000 0.0065000000 0.0065000000 0.0065000000 0.0065000000 0.0065000000 0.0065000000 0.0065000000 0.0065000000 0.0065000000 0.0065000000 0.0065000000 0.0065000000 0.0065000000 0.0065000000 0.0065000000 0.0065000000 0.0065000000 0.0065000000 0.0065000000 0.0065000000 0.0065000000 0.0065000000 0.0065000000 0.0065000000 0.0065000000 0.0065000000 0.0065000000 0.0065000000 0.0065000000 0.0065000000 0.0065000000 0.0065000000 0.0065000000 0.0065000000 0.0065000000 0.0065000000 0.0065000000 0.0065000000 0.0065000000 0.0065000000 0.0065000000 0.0065000000 0.0065000000 0.0065000000 0.0065000000 0.0065000000 0.0065000000 0.0065000000 0.0065000000 0.0065000000 0.0065000000 0.0065000000 0.0065000000 0.0065000000 0.0065000000 0.0065000000 0.0065000000 0.0065000000 0.0065000000 0.0065000000 0.0065000000 0.0065000000 0.0065000000 0.0065000000 0.0065000000 0.0065000000 0.0065000000 0.0065000000 0.0065000000 0.0065000000 0.0065000000 0.0065000000 0.0065000000 0.0065000000 0.0065000000 0.0065000000 0.0065000000 0.0065000000 0.0065000000 0.0065000000 0.0065000000 0.0065000000 0.0065000000 0.0065000000 0.0065000000 0.0065000000 0.0065000000 0.0065000000 0.0065000000 0.0065000000 0.0065000000 0.0065000000 0.0065000000 0.0065000000 0.0065000000 0.0065000000 0.0065000000 0.0065000000 0.0065000000 0.0065000000 0.0065000000 0.0065000000 0.0065000000 0.0065000000 0.0065000000 0.0065000000 0.0065000000 0.0065000000 0.0065000000 0.0065000000 0.0065000000 0.0065000000 0.0065000000 0.0065000000 0.0065000000 0.0065000000 0.0065000000 0.0065000000 0.0065000000 0.0065000000 0.0065000000 0.0065000000 0.0065000000 0.0065000000 0.0065000000 0.0065000000 0.0065000000 0.0065000000 0.0065000000 0.0065000000 0.0065000000 0.0065000000 0.0065000000 0.0065000000 0.0065000000 0.0065000000 0.0065000000 0.0065000000 0.0065000000 0.0065000000 0.0065000000 0.0065000000 0.0065000000 0.0065000000 0.0065000000 0.0065000000 0.0065000000 0.0065000000 0.0065000000 0.0065000000 0.0065000000 0.0065000000 0.0065000000 0.0065000000 0.0065000000 0.0065000000 0.0065000000 0.0065000000 0.0065000000 0.0065000000 0.0065000000 0.0065000000 0.0065000000 0.0065000000 0.0065000000 0.0065000000 0.0065000000 0.0065000000 0.0065000000 0.0065000000 0.0065000000 0.0065000000 0.0065000000 0.0065000000 0.0065000000 0.0065000000 0.0065000000 0.0065000000 0.0065000000 0.0065000000 0.0065000000 0.0065000000 0.0065000000 0.0065000000 0.0065000000 0.0065000000 0.0065000000 0.0065000000 0.0065000000 0.0065000000 0.0065000000 0.0065000000 0.0065000000 0.0065000000 0.0065000000 0.0065000000 0.0065000000 0.0065000000 0.0065000000 0.0065000000 0.0065000000 0.0065000000 0.0065000000 0.0065000000 0.0065000000 0.0065000000 0.0065000000 0.0065000000 0.0065000000 0.0065000000 0.0065000000 0.0065000000 0.0065000000 0.0065000000 0.0065000000 0.0065000000 0.0065000000 0.0065000000 0.0065000000 0.0065000000 0.0065000000 0.0065000000 0.0065000000 0.0065000000 0.0065000000 0.0065000000 0.0065000000 0.0065000000 0.0065000000 0.0065000000 0.0065000000 0.0065000000 0.0065000000 0.0065000000 0.0065000000 0.0065000000 0.0065000000 0.0065000000 0.0065000000 0.0065000000 0.0065000000 0.0065000000 0.0065000000 0.0065000000 0.0065000000 0.0065000000 0.0065000000 0.0065000000 0.0065000000 0.0065000000 0.0065000000 0.0065000000 0.0065000000 0.0065000000 0.0065000000 0.0065000000 0.0065000000 0.0065000000 0.0065000000 0.0065000000 0.0065000000 0.0065000000 0.0065000000 0.0065000000 0.0065000000 0.0065000000 0.0065000000 0.0065000000 0.0065000000 0.0065000000 0.0065000000 0.0065000000 0.0065000000 0.0065000000 0.0065000000 0.0065000000 0.0065000000 0.0065000000 0.0065000000 0.0065000000 0.0065000000 0.0065000000 0.0065000000 0.0065000000 0.0065000000 0.0065000000 0.0065000000 0.0065000000 0.0065000000 0.0065000000 0.0065000000 0.0065000000 0.0065000000 0.0065000000 0.0065000000 0.0065000000 0.0065000000 0.0065000000 0.0065000000 0.0065000000 0.0065000000 0.0065000000 0.0065000000 0.0065000000 0.0065000000 0.0065000000 0.0065000000 0.0065000000 0.0065000000 0.0065000000 0.0065000000 0.0065000000 0.0065000000 0.0065000000 0.0065000000 0.0065000000 0.0065000000 0.0065000000 0.0065000000 0.0065000000 0.0065000000 0.0065000000 0.0065000000 0.0065000000 0.0065000000 0.0065000000 0.0065000000 0.0065000000 0.0065000000 0.0065000000 0.0065000000 0.0065000000 0.0065000000 0.0065000000 0.0065000000 0.0065000000 0.0065000000 0.0065000000 0.0065000000 0.0065000000 0.0065000000 0.0065000000 0.0065000000 0.0065000000 0.0065000000 0.0065000000 0.0065000000 0.0065000000 0.0065000000 0.0065000000 0.0065000000 0.0065000000 0.0065000000 0.0065000000 0.0065000000 0.0065000000 0.0065000000 0.0065000000 0.0065000000 0.0065000000 0.0065000000 0.0065000000 0.0065000000 0.0065000000 0.0065000000 0.0065000000 0.0065000000 0.0065000000 0.0065000000 0.0065000000 0.0065000000 0.0065000000 0.0065000000 0.0065000000 0.0065000000 0.0065000000 0.0065000000 0.0065000000 0.0065000000 0.0065000000 0.0065000000 0.0065000000 0.0065000000 0.0065000000 0.0065000000 0.0065000000 0.0065000000 0.0065000000 0.0065000000 0.0065000000 0.0065000000 0.0065000000 0.0065000000 0.0065000000 0.0065000000 0.0065000000 0.0065000000 0.0065000000 0.0065000000 0.0065000000 0.0065000000 0.0065000000 0.0065000000 0.0065000000 0.0065000000 0.0065000000 0.0065000000 0.0065000000 0.0065000000 0.0065000000 0.0065000000 0.0065000000 0.0065000000 0.0065000000 0.0065000000 0.0065000000 0.0065000000 0.0065000000 0.0065000000 0.0065000000 0.0065000000 0.0065000000 0.0065000000 0.0065000000 0.0065000000 0.0065000000 0.0065000000 0.0065000000 0.0065000000 0.0065000000 0.0065000000 0.0065000000 0.0065000000 0.0065000000 0.0065000000 0.0065000000 0.0065000000 0.0065000000 0.0065000000 0.0065000000 0.0065000000 0.0065000000 0.0065000000 0.0065000000 0.0065000000 0.0065000000 0.0065000000 0.0065000000 0.0065000000 0.0065000000 0.0065000000 0.0065000000 0.0065000000 0.0065000000 0.0065000000 0.0065000000 0.0065000000 0.0065000000 0.0065000000 0.0065000000 0.0065000000 0.0065000000 0.0065000000 0.0065000000 0.0065000000 0.0065000000 0.0065000000 0.0065000000 0.0065000000 0.0065000000 0.0065000000 0.0065000000 0.0065000000 0.0065000000 0.0065000000 0.0065000000 0.0065000000 0.0065000000 0.0065000000 0.0065000000 0.0065000000 0.0065000000 0.0065000000 0.0065000000 0.0065000000 0.0065000000 0.0065000000 0.0065000000 0.0065000000 0.0065000000 0.0065000000 0.0065000000 0.0065000000 0.0065000000 0.0065000000 0.0065000000 0.0065000000 0.0065000000 0.0065000000 0.0065000000 0.0065000000 0.0065000000 0.0065000000 0.0065000000 0.0065000000 0.0065000000 0.0065000000 0.0065000000 0.0065000000 0.0065000000 0.0065000000 0.0065000000 0.0065000000 0.0065000000 0.0065000000 0.0065000000 0.0065000000 0.0065000000 0.0065000000 0.0065000000 0.0065000000 0.0065000000 0.0065000000 0.0065000000 0.0065000000 0.0065000000 0.0065000000 0.0065000000 0.0065000000 0.0065000000 0.0065000000 0.0065000000 0.0065000000 0.0065000000 0.0065000000 0.0065000000 0.0065000000 0.0065000000 0.0065000000 0.0065000000 0.0065000000 0.0065000000 0.0065000000 0.0065000000 0.0065000000 0.0065000000 0.0065000000 0.0065000000 0.0065000000 0.0065000000 0.0065000000 0.0065000000 0.0065000000 0.0065000000 0.0065000000 0.0065000000 0.0065000000 0.0065000000 0.0065000000 0.0065000000 0.0065000000 0.0065000000 0.0065000000 0.0065000000 0.0065000000 0.0065000000 0.0065000000 0.0065000000 0.0065000000 0.0065000000 0.0065000000 0.0065000000 0.0065000000 0.0065000000 0.0065000000 0.0065000000 0.0065000000 0.0065000000 0.0065000000 0.0065000000 0.0065000000 0.0065000000 0.0065000000 0.0065000000 0.0065000000 0.0065000000 0.0065000000 0.0065000000 0.0065000000 0.0065000000 0.0065000000 0.0065000000 0.0065000000 0.0065000000 0.0065000000 0.0065000000 0.0065000000 0.0065000000 0.0065000000 0.0065000000 0.0065000000 0.0065000000 0.0065000000 0.0065000000 0.0065000000 0.0065000000 0.0065000000 0.0065000000 0.0065000000 0.0065000000 0.0065000000 0.0065000000 0.0065000000 0.0065000000 0.0065000000 0.0065000000 0.0065000000 0.0065000000 0.0065000000 0.0065000000 0.0065000000 0.0065000000 0.0065000000 0.0065000000 0.0065000000 0.0065000000 0.0065000000 0.0065000000 0.0065000000 0.0065000000 0.0065000000 0.0065000000 0.0065000000 0.0065000000 0.0065000000 0.0065000000 0.0065000000 0.0065000000 0.0065000000 0.0065000000 0.0065000000 0.0065000000 0.0065000000 0.0065000000 0.0065000000 0.0065000000 0.0065000000 0.0065000000 0.0065000000 0.0065000000 0.0065000000 0.0065000000 0.0065000000 0.0065000000 0.0065000000 0.0065000000 0.0065000000 0.0065000000 0.0065000000 0.0065000000 0.0065000000 0.0065000000 0.0065000000 0.0065000000 0.0065000000 0.0065000000 0.0065000000 0.0065000000 0.0065000000 0.0065000000 0.0065000000 0.0065000000 0.0065000000 0.0065000000 0.0065000000 0.0065000000 0.0065000000 0.0065000000 0.0065000000 0.0065000000 0.0065000000 0.0065000000 0.0065000000 0.0065000000 0.0065000000 0.0065000000 0.0065000000 0.0065000000 0.0065000000 0.0065000000 0.0065000000 0.0065000000 0.0065000000 0.0065000000 0.0065000000 0.0065000000 0.0065000000 0.0065000000 0.0065000000 0.0065000000 0.0065000000 0.0065000000 0.0065000000 0.0065000000 0.0065000000 0.0065000000 0.0065000000 0.0065000000 0.0065000000 0.0065000000 0.0065000000 0.0065000000 0.0065000000 0.0065000000 0.0065000000 0.0065000000 0.0065000000 0.0065000000 0.0065000000 0.0065000000 0.0065000000 0.0065000000 0.0065000000 0.0065000000 0.0065000000 0.0065000000 0.0065000000 0.0065000000 0.0065000000 0.0065000000 0.0065000000 0.0065000000 0.0065000000 0.0065000000 0.0065000000 0.0065000000 0.0065000000 0.0065000000 0.0065000000 0.0065000000 0.0065000000 0.0065000000 0.0065000000 0.0065000000 0.0065000000 0.0065000000 0.0065000000 0.0065000000 0.0065000000 0.0065000000 0.0065000000 0.0065000000 0.0065000000 0.0065000000 0.0065000000 0.0065000000 0.0065000000 0.0065000000 0.0065000000 0.0065000000 0.0065000000 0.0065000000 0.0065000000 0.0065000000 0.0065000000 0.0065000000 0.0065000000 0.0065000000 0.0065000000 0.0065000000 0.0065000000 0.0065000000 0.0065000000 0.0065000000 0.0065000000 0.0065000000 0.0065000000 0.0065000000 0.0065000000 0.0065000000 0.0065000000 0.0065000000 0.0065000000 0.0065000000 0.0065000000 0.0065000000 0.0065000000 0.0065000000 0.0065000000 0.0065000000 0.0065000000 0.0065000000 0.0065000000 0.0065000000 0.0065000000 0.0065000000 0.0065000000 0.0065000000 0.0065000000 0.0065000000 0.0065000000 0.0065000000 0.0065000000 0.0065000000 0.0065000000 0.0065000000 0.0065000000 0.0065000000 0.0065000000 0.0065000000 0.0065000000 0.0065000000 0.0065000000 0.0065000000 0.0065000000 0.0065000000 0.0065000000 0.0065000000 0.0065000000 0.0065000000 0.0065000000 0.0065000000 0.0065000000 0.0065000000 0.0065000000 0.0065000000 0.0065000000 0.0065000000 0.0065000000 0.0065000000 0.0065000000 0.0065000000 0.0065000000 0.0065000000 0.0065000000 0.0065000000 0.0065000000 0.0065000000 0.0065000000 0.0065000000 0.0065000000 0.0065000000 0.0065000000 0.0065000000 0.0065000000 0.0065000000 0.0065000000 0.0065000000 0.0065000000 0.0065000000 0.0065000000 0.0065000000 0.0065000000 0.0065000000 0.0065000000 0.0065000000 0.0065000000 0.0065000000 0.0065000000 0.0065000000 0.0065000000 0.0065000000 0.0065000000 0.0065000000 0.0065000000 0.0065000000 0.0065000000 0.0065000000 0.0065000000 0.0065000000 0.0065000000 0.0065000000 0.0065000000 0.0065000000 0.0065000000 0.0065000000 0.0065000000 0.0065000000 0.0065000000 0.0065000000 0.0065000000 0.0065000000 0.0065000000 0.0065000000 0.0065000000 0.0065000000 0.0065000000 0.0065000000 0.0065000000 0.0065000000 0.0065000000 0.0065000000 0.0065000000 0.0065000000 0.0065000000 0.0065000000 0.0065000000 0.0065000000 0.0065000000 0.0065000000 0.0065000000 0.0065000000 0.0065000000 0.0065000000 0.0065000000 0.0065000000 0.0065000000 0.0065000000 0.0065000000 0.0065000000 0.0065000000 0.0065000000 0.0065000000 0.0065000000 0.0065000000 0.0065000000 0.0065000000 0.0065000000 0.0065000000 0.0065000000 0.0065000000 0.0065000000 0.0065000000 0.0065000000 0.0065000000 0.0065000000 0.0065000000 0.0065000000 0.0065000000 0.0065000000 0.0065000000 0.0065000000 0.0065000000 0.0065000000 0.0065000000 0.0065000000 0.0065000000 0.0065000000 0.0065000000 0.0065000000 0.0065000000 0.0065000000 0.0065000000 0.0065000000 0.0065000000 0.0065000000 0.0065000000 0.0065000000 0.0065000000 0.0065000000 0.0065000000 0.0065000000 0.0065000000 0.0065000000 0.0065000000 0.0065000000 0.0065000000 0.0065000000 0.0065000000 0.0065000000 0.0065000000 0.0065000000 0.0065000000 0.0065000000 0.0065000000 0.0065000000 0.0065000000 0.0065000000 0.0065000000 0.0065000000 0.0065000000 0.0065000000 0.0065000000 0.0065000000 0.0065000000 0.0065000000 0.0065000000 0.0065000000 0.0065000000 0.0065000000 0.0065000000 0.0065000000 0.0065000000 0.0065000000 0.0065000000 0.0065000000 0.0065000000 0.0065000000 0.0065000000 0.0065000000 0.0065000000 0.0065000000 0.0065000000 0.0065000000 0.0065000000 0.0065000000 0.0065000000 0.0065000000 0.0065000000 0.0065000000 0.0065000000 0.0065000000 0.0065000000 0.0065000000 0.0065000000 0.0065000000 0.0065000000 0.0065000000 0.0065000000 0.0065000000 0.0065000000 0.0065000000 0.006500000