<?xml version="1.0"?>
<VTKFile type="UnstructuredGrid" version="0.1" byte_order="LittleEndian">
  <UnstructuredGrid>
    <FieldData>
      <DataArray type="Float32" Name="TIME"  NumberOfTuples="1" format="ascii"> 2.0985546037 </DataArray>
      <DataArray type="Int32"   Name="STEP"  NumberOfTuples="1" format="ascii"> 28140 </DataArray>
    </FieldData>
    <Piece NumberOfPoints="18081" NumberOfCells="18081">
      <Points>
        <DataArray type="Float32" NumberOfComponents="3" format="ascii">
 0.0333704062 0.0894131639 0.0026539277 0.0019045655 0.0607650516 0.0002208869 0.0773682569 0.0736542361 0.0047321612 0.1186428258 0.0126705333 0.0085359724 0.1003026949 0.0544386472 0.0060948116 0.0274551268 0.0005391360 0.0118363340 0.4201880776 0.0133646852 0.0186116679 0.3818743770 0.0225721327 0.0061844953 0.4481897753 0.0011518144 0.0049542565 0.4082783261 0.0199238833 0.0064902548 0.4541881983 0.0195079114 0.0125959335 0.4750303061 0.0070817948 0.0154241151 0.4717589963 0.0073523741 0.0183307127 0.3768231445 0.0411244161 0.0173425140 0.4711688457 0.0504146355 0.0169445362 0.4666219516 0.0168442833 0.0236466014 0.4993197447 -0.0008537075 0.0114324719 0.3847874495 0.0898463957 0.0182512568 0.4576989253 0.0182322938 0.0242544846 0.1928637678 0.0157771513 0.0139957937 0.4993273756 0.0032494629 0.0420484666 0.0526174956 0.0968852748 0.0005826918 0.0153244173 0.0338365610 0.0141918347 0.0713190866 0.0442029994 0.0042609451 0.0813880961 0.0461972642 0.0002480086 0.0487253861 0.0099943888 0.0055655520 0.3420045972 0.0021850787 0.0034326252 0.4338322743 -0.0005284950 0.0150794915 0.3918814112 0.0092790149 0.0010578447 0.4772591650 0.0148469845 0.0259685042 0.4413831557 0.0029563459 0.0054261382 0.4140450238 0.0569235880 0.0169947166 0.4910122802 0.0137978416 0.0235135827 0.4230753633 0.0620283538 0.0121582645 0.4618945187 -0.0001789524 0.0204981320 0.3887905607 0.0381513373 0.0153889904 0.4604540148 0.0195725701 0.0132230850 0.4587681820 0.0340989975 0.0195472529 0.0659554900 0.0395444466 0.0144928232 0.0407225466 0.0081600571 0.0143535198 0.3185863205 0.0275224983 0.0164528675 0.4122204075 0.0942547649 0.0212423151 0.1270191962 0.0438005935 0.0117226612 0.0000704398 0.0499935102 0.0007907475 0.0570145210 0.0699210610 0.0002566140 0.1906759049 0.0854546082 0.0217186445 0.3038974145 0.0011124077 0.0179779455 0.4062399025 0.0229184472 0.0098123378 0.4385500896 0.0016966162 -0.0010373312 0.4988674829 0.0361806356 0.0055698828 0.4988541234 0.0563160126 0.0041654422 0.4201265917 0.0047555724 0.0061329830 0.4351068118 0.0502124670 0.0194158928 0.3813211989 0.0441869144 0.0033710797 0.4706181057 0.0610005812 0.0215040443 0.4717977849 0.0526456331 0.0002560540 0.3330511770 0.0169087604 0.0044619833 0.3750277751 0.0165385370 0.0006541994 0.4678733335 0.0238543106 0.0208737183 0.0170346827 0.0564262782 0.0113680317 0.4476696478 0.0743316492 0.0188428582 0.4980320508 0.0411715530 0.0119492813 0.4185319858 0.0582423385 0.0135602555 0.0735626037 0.0564683264 0.0007333915 0.1122108317 0.0264864942 0.0119476139 0.0531886377 0.0666789487 0.0010305348 0.0832507219 0.0444594947 0.0074869199 0.3182167830 0.0146029755 0.0143287181 0.3682272209 0.0076578190 0.0088289519 0.3647850875 0.0000993743 0.0060960766 0.3011706303 0.0288307414 0.0185548199 0.2378557416 0.0001167656 0.0225332947 0.4854462497 0.0106286016 0.0000848419 0.3965439334 0.0644886478 0.0092962919 0.3688919005 0.0579216820 0.0121939273 0.4406800793 0.0145163063 0.0153354853 0.3072595844 0.0071820769 0.0098889176 0.2860090618 0.0510457600 0.0157040930 0.4196353116 0.0336594139 0.0204309947 0.2423405733 0.0192725092 0.0219935006 0.0158153500 0.0610805549 0.0082523395 0.0188376365 0.0965761134 0.0031109419 0.0436506337 0.0308685885 0.0191973357 0.4734522844 0.0920332077 0.0042556339 0.1694209377 0.0398726590 0.0011091573 0.1857556890 0.0242720396 0.0066395182 0.0451956773 0.0294933061 0.0004142168 0.2347221842 0.0002906511 0.0107134093 0.2898963432 0.0038845358 0.0000008907 0.3618491904 0.0055372020 0.0067499017 0.4708447014 0.0245451075 -0.0005090280 0.3586993028 0.0085862831 0.0103472165 0.3214144906 0.0107693639 0.0116202546 0.3364092232 0.0318535691 0.0092447606 0.4727610405 0.0727856784 0.0010243184 0.3915828958 0.0783728876 0.0060581132 0.3706799630 0.0449971989 0.0148744195 0.3601514156 0.0375122153 0.0077673346 0.2767430581 0.0493484870 0.0195538130 0.4379664622 0.0580556503 0.0204740368 0.4556843063 0.0121342287 0.0243598307 0.4178061757 0.0301571877 0.0209839322 0.3703431158 0.0811590043 0.0189128678 0.3717989108 0.0233147640 0.0191623801 0.4214312613 0.0548200577 0.0202467982 0.1577706474 0.0328681049 0.0093831405 0.0828870722 0.0510780892 0.0007362919 0.0597129685 0.0615116600 0.0005286603 0.0075114623 0.0217319589 0.0068034842 0.3473334739 0.0194775095 0.0120026708 0.4503193344 0.0068973506 -0.0003099356 0.3182640501 0.0356175155 0.0104751214 0.3557999402 0.0350733291 0.0187012509 0.2765347128 0.0641300790 0.0227732334 0.3214073920 0.0204438577 0.0036990641 0.4132223230 0.0270141152 0.0058908860 0.3639734020 0.0527601330 0.0068286319 0.4034680529 0.0498761850 0.0067664781 0.4965090811 0.0902323766 0.0395711978 0.4389851607 0.0430584552 0.0072339084 0.3895506169 0.0556933575 0.0140257514 0.2251680896 0.0166745951 0.0197094053 0.0706885341 0.0823238695 0.0087655819 0.2431370013 0.0076316835 0.0175278751 0.4190951292 0.0052719655 0.0206610798 0.4911089902 0.0582713115 0.0088008229 0.1720124044 0.0366317171 -0.0001218309 0.1963920880 0.0207510836 0.0062903737 0.0728379328 0.0406081609 0.0006455972 0.2873300155 0.0088999480 0.0029199310 0.3103565907 0.0130209855 0.0119785804 0.3304470508 -0.0001352933 0.0020375306 0.2900541881 0.0189821952 -0.0001886435 0.3868152420 0.0150157205 0.0008204392 0.2767784282 0.0144022925 0.0099372858 0.2949424183 0.0177949964 0.0005435292 0.3459066605 0.0505221281 0.0061518842 0.4127601412 0.0271596653 -0.0002127379 0.3194008398 0.0613836128 0.0155665744 0.4327627027 0.0649964474 0.0027179509 0.2617177031 0.0388966972 -0.0000983321 0.4319640391 0.0665077036 0.0196541273 0.0115461900 0.0325296635 0.0076510322 0.1045494430 0.0554257017 0.0132419511 0.0824623362 0.0412087093 0.0139407109 0.0041858170 0.0745670371 0.0143287342 0.4334392421 0.0968254247 0.0272468559 0.1445274455 0.0356014279 0.0136016177 0.1198274454 0.0381656725 0.0013632053 0.1448753013 0.0239377896 -0.0000733345 0.2724111727 0.0005861907 0.0031875492 0.2971807618 0.0111300347 0.0157125475 0.3089476359 0.0004352066 0.0069634211 0.3181183252 0.0179598788 -0.0003855747 0.2467870396 0.0536466684 0.0242918271 0.3417544113 0.0220604120 0.0025484773 0.2962605235 0.0193232060 0.0131662482 0.3687007838 0.0532258576 -0.0002577480 0.4464917668 0.0683003843 0.0105844072 0.2887949307 0.0599046861 0.0093426817 0.3915656404 0.0496878503 0.0170813073 0.3196167100 0.0508085775 0.0126242822 0.2493134594 0.0456549813 0.0233407710 0.2434087325 0.0674820108 0.0240546083 0.0273776315 0.0564009838 0.0087286944 0.2379407210 0.0383664327 0.0171844189 0.2327140997 0.0463541415 0.0245390420 0.0548697732 0.0441529717 0.0177680612 0.1172823065 0.0341666674 0.0082530035 0.1948274145 0.0519772003 0.0097541695 0.1512036611 0.0270596164 -0.0004142560 0.2669270341 0.0001746019 0.0138820770 0.3486287812 0.0040984333 0.0079356964 0.3379794846 0.0022324998 0.0115603239 0.3086194628 0.0079399280 0.0028285656 0.2669172604 0.0298313496 0.0057572067 0.0970388373 0.0144832743 0.0061610829 0.0122848589 0.0227918973 -0.0001210967 0.3744347257 0.0485645880 0.0082927290 0.3698747353 0.0527333550 0.0033777155 0.3303741904 0.0565301090 0.0004395120 0.4099780817 0.0543301918 0.0035727240 0.4338435592 0.0675722316 0.0133002704 0.4158492886 0.0856823653 0.0111479660 0.4518470201 0.0987602914 0.0211411447 0.0280880635 0.0225385223 0.0039904881 0.0812960066 0.0335089885 0.0117793659 0.4412228593 0.0196287381 0.0118837499 0.0595299741 0.0495833569 0.0142635891 0.1714003582 0.0418129451 0.0073982141 0.1654009515 0.0574167520 0.0077129331 0.1889800931 0.0520528205 -0.0000219704 0.2587140463 0.0001196064 -0.0002142422 0.3256091951 0.0272232954 0.0103443638 0.2984425469 0.0000744176 0.0003689383 0.3108329376 0.0096167316 0.0081095227 0.3142495726 0.0249053135 -0.0002064706 0.3179633620 0.0190416683 0.0069612825 0.2294464946 0.0224211401 -0.0005646818 0.3638293011 0.0360238021 0.0027570434 0.4664821295 0.0515427541 0.0096058472 0.4165442810 0.0393099051 0.0071110772 0.3575605241 0.0179206970 0.0038367813 0.3225024494 0.0755864632 0.0199579753 0.2127224755 0.0194544313 -0.0001328992 0.3759113800 0.0764391284 0.0171770977 0.2616485688 0.0873866879 0.0235784165 0.3991556204 0.0602545725 0.0088715423 0.0662717649 0.0101817832 0.0155898504 0.4605326797 0.0721432956 0.0064842573 0.1761964932 0.0434840861 0.0009004026 0.1350867975 0.0498784600 0.0002306867 0.0926053694 0.0349064323 0.0003363489 0.2810175182 0.0198339434 0.0076403856 0.2654395914 0.0356678407 0.0140884563 0.3325830419 0.0028387354 0.0148662833 0.2896137650 0.0240865670 0.0004591971 0.3696881812 0.0442191384 0.0004783584 0.0538490090 0.0516072217 0.0104736217 0.2690191845 0.0002826840 0.0000350307 0.4460767338 0.0641659410 -0.0000465089 0.4936623191 0.0876875974 0.0081131830 0.2901944477 0.0684965251 0.0036856738 0.4700748585 0.0630708052 0.0051383130 0.3643285332 0.0613589768 0.0156792668 0.2130370954 0.0677698805 0.0200371316 0.2167360251 0.0737575971 0.0237777797 0.1111547512 0.0253782371 0.0002324052 0.2340063733 0.0721177595 0.0147796684 0.4759391629 0.1025027913 0.0236871730 0.4513654891 0.0787404357 0.0088993776 0.1677564720 0.0439357462 0.0044197863 0.1588146633 0.0690693957 0.0102887508 0.1900887461 0.0234272779 0.0006534759 0.2508953900 -0.0007401512 0.0166753494 0.0543752756 0.0296301758 0.0040494510 0.2808089848 0.0296856046 0.0055306868 0.2994109318 0.0122426312 0.0047332642 0.2679462690 0.0344583671 0.0098315561 0.4085223089 0.0197344509 0.0015939871 0.2921950102 0.0509684809 0.0073635766 0.4649320927 0.0415317503 0.0136914622 0.4275318806 0.0814705696 0.0134860549
[...]
      <PointData Scalars="smoothLength">
        <DataArray type="Float32" Name="smoothLength" format="ascii">
 0.0065000000 0.0065000000 0.0065000000 0.0065000000 0.0065000000 0.0065000000 0.0065000000 0.0065000000 0.0065000000 0.0065000000 0.0065000000 0.0065000000 0.0065000000 0.0065000000 0.0065000000 0.0065000000 0.0065000000 0.0065000000 0.0065000000 0.0065000000 0.0065000000 0.0065000000 0.0065000000 0.0065000000 0.0065000000 0.0065000000 0.0065000000 0.0065000000 0.0065000000 0.0065000000 0.0065000000 0.0065000000 0.0065000000 0.0065000000 0.0065000000 0.0065000000 0.0065000000 0.0065000000 0.0065000000 0.0065000000 0.0065000000 0.0065000000 0.0065000000 0.0065000000 0.0065000000 0.0065000000 0.0065000000 0.0065000000 0.0065000000 0.0065000000 0.0065000000 0.0065000000 0.0065000000 0.0065000000 0.0065000000 0.0065000000 0.0065000000 0.0065000000 0.0065000000 0.0065000000 0.0065000000 0.0065000000 0.0065000000 0.0065000000 0.0065000000 0.0065000000 0.0065000000 0.0065000000 0.0065000000 0.0065000000 0.0065000000 0.0065000000 0.0065000000 0.0065000000 0.0065000000 0.0065000000 0.0065000000 0.0065000000 0.0065000000 0.0065000000 0.0065000000 0.0065000000 0.0065000000 0.0065000000 0.0065000000 0.0065000000 0.0065000000 0.0065000000 0.0065000000 0.0065000000 0.0065000000 0.0065000000 0.0065000000 0.0065000000 0.0065000000 0.0065000000 0.0065000000 0.0065000000 0.0065000000 0.0065000000 0.0065000000 0.0065000000 0.0065000000 0.0065000000 0.0065000000 0.0065000000 0.0065000000 0.0065000000 0.0065000000 0.0065000000 0.0065000000 0.0065000000 0.0065000000 0.0065000000 0.0065000000 0.0065000000 0.0065000000 0.0065000000 0.0065000000 0.0065000000 0.0065000000 0.0065000000 0.0065000000 0.0065000000 0.0065000000 0.0065000000 0.0065000000 0.0065000000 0.0065000000 0.0065000000 0.0065000000 0.0065000000 0.0065000000 0.0065000000 0.0065000000 0.0065000000 0.0065000000 0.0065000000 0.0065000000 0.0065000000 0.0065000000 0.0065000000 0.0065000000 0.0065000000 0.0065000000 0.0065000000 0.0065000000 0.0065000000 0.0065000000 0.0065000000 0.0065000000 0.0065000000 0.0065000000 0.0065000000 0.0065000000 0.0065000000 0.0065000000 0.0065000000 0.0065000000 0.0065000000 0.0065000000 0.0065000000 0.0065000000 0.0065000000 0.0065000000 0.0065000000 0.0065000000 0.0065000000 0.0065000000 0.0065000000 0.0065000000 0.0065000000 0.0065000000 0.0065000000 0.0065000000 0.0065000000 0.0065000000 0.0065000000 0.0065000000 0.0065000000 0.0065000000 0.0065000000 0.0065000000 0.0065000000 0.0065000000 0.0065000000 0.0065000000 0.0065000000 0.0065000000 0.0065000000 0.0065000000 0.0065000000 0.0065000000 0.0065000000 0.0065000000 0.0065000000 0.0065000000 0.0065000000 0.0065000000 0.0065000000 0.0065000000 0.0065000000 0.0065000000 0.0065000000 0.0065000000 0.0065000000 0.0065000000 0.0065000000 0.0065000000 0.0065000000 0.0065000000 0.0065000000 0.0065000000 0.0065000000 0.0065000000 0.0065000000 0.0065000000 0.0065000000 0.0065000000 0.0065000000 0.0065000000 0.0065000000 0.0065000000 0.0065000000 0.0065000000 0.0065000000 0.0065000000 0.0065000000 0.0065000000 0.0065000000 0.0065000000 0.0065000000 0.0065000000 0.0065000000 0.0065000000 0.0065000000 0.0065000000 0.0065000000 0.0065000000 0.0065000000 0.0065000000 0.0065000000 0.0065000000 0.0065000000 0.0065000000 0.0065000000 0.0065000000 0.0065000000 0.0065000000 0.0065000000 0.0065000000 0.0065000000 0.0065000000 0.0065000000 0.0065000000 0.0065000000 0.0065000000 0.0065000000 0.0065000000 0.0065000000 0.0065000000 0.0065000000 0.0065000000 0.0065000000 0.0065000000 0.0065000000 0.0065000000 0.0065000000 0.0065000000 0.0065000000 0.0065000000 0.0065000000 0.0065000000 0.0065000000 0.0065000000 0.0065000000 0.0065000000 0.0065000000 0.0065000000 0.0065000000 0.0065000000 0.0065000000 0.0065000000 0.0065000000 0.0065000000 0.0065000000 0.0065000000 0.0065000000 0.0065000000 0.0065000000 0.0065000000 0.0065000000 0.0065000000 0.0065000000 0.0065000000 0.0065000000 0.0065000000 0.0065000000 0.0065000000 0.0065000000 0.0065000000 0.0065000000 0.0065000000 0.0065000000 0.0065000000 0.0065000000 0.0065000000 0.0065000000 0.0065000000 0.0065000000 0.0065000000 0.0065000000 0.0065000000 0.0065000000 0.0065000000 0.0065000000 0.0065000000 0.0065000000 0.0065000000 0.0065000000 0.0065000000 0.0065000000 0.0065000000 0.0065000000 0.0065000000 0.0065000000 0.0065000000 0.0065000000 0.0065000000 0.0065000000 0.0065000000 0.0065000000 0.0065000000 0.0065000000 0.0065000000 0.0065000000 0.0065000000 0.0065000000 0.0065000000 0.0065000000 0.0065000000 0.0065000000 0.0065000000 0.0065000000 0.0065000000 0.0065000000 0.0065000000 0.0065000000 0.0065000000 0.0065000000 0.0065000000 0.0065000000 0.0065000000 0.0065000000 0.0065000000 0.0065000000 0.0065000000 0.0065000000 0.0065000000 0.0065000000 0.0065000000 0.0065000000 0.0065000000 0.0065000000 0.0065000000 0.0065000000 0.0065000000 0.0065000000 0.0065000000 0.0065000000 0.0065000000 0.0065000000 0.0065000000 0.0065000000 0.0065000000 0.0065000000 0.0065000000 0.0065000000 0.0065000000 0.0065000000 0.0065000000 0.0065000000 0.0065000000 0.0065000000 0.0065000000 0.0065000000 0.0065000000 0.0065000000 0.0065000000 0.0065000000 0.0065000000 0.0065000000 0.0065000000 0.0065000000 0.0065000000 0.0065000000 0.0065000000 0.0065000000 0.0065000000 0.0065000000 0.0065000000 0.0065000000 0.0065000000 0.0065000000 0.0065000000 0.0065000000 0.0065000000 0.0065000000 0.0065000000 0.0065000000 0.0065000000 0.0065000000 0.0065000000 0.0065000000 0.0065000000 0.0065000000 0.0065000000 0.0065000000 0.0065000000 0.0065000000 0.0065000000 0.0065000000 0.0065000000 0.0065000000 0.0065000000 0.0065000000 0.0065000000 0.0065000000 0.0065000000 0.0065000000 0.0065000000 0.0065000000 0.0065000000 0.0065000000 0.0065000000 0.0065000000 0.0065000000 0.0065000000 0.0065000000 0.0065000000 0.0065000000 0.0065000000 0.0065000000 0.0065000000 0.0065000000 0.0065000000 0.0065000000 0.0065000000 0.0065000000 0.0065000000 0.0065000000 0.0065000000 0.0065000000 0.0065000000 0.0065000000 0.0065000000 0.0065000000 0.0065000000 0.0065000000 0.0065000000 0.0065000000 0.0065000000 0.0065000000 0.0065000000 0.0065000000 0.0065000000 0.0065000000 0.0065000000 0.0065000000 0.0065000000 0.0065000000 0.0065000000 0.0065000000 0.0065000000 0.0065000000 0.0065000000 0.0065000000 0.0065000000 0.0065000000 0.0065000000 0.0065000000 0.0065000000 0.0065000000 0.0065000000 0.0065000000 0.0065000000 0.0065000000 0.0065000000 0.0065000000 0.0065000000 0.0065000000 0.0065000000 0.0065000000 0.0065000000 0.0065000000 0.0065000000 0.0065000000 0.0065000000 0.0065000000 0.0065000000 0.0065000000 0.0065000000 0.0065000000 0.0065000000 0.0065000000 0.0065000000 0.0065000000 0.0065000000 0.0065000000 0.0065000000 0.0065000000 0.0065000000 0.0065000000 0.0065000000 0.0065000000 0.0065000000 0.0065000000 0.0065000000 0.0065000000 0.0065000000 0.0065000000 0.0065000000 0.0065000000 0.0065000000 0.0065000000 0.0065000000 0.0065000000 0.0065000000 0.0065000000 0.0065000000 0.0065000000 0.0065000000 0.0065000000 0.0065000000 0.0065000000 0.0065000000 0.0065000000 0.0065000000 0.0065000000 0.0065000000 0.0065000000 0.0065000000 0.0065000000 0.0065000000 0.0065000000 0.0065000000 0.0065000000 0.0065000000 0.0065000000 0.0065000000 0.0065000000 0.0065000000 0.0065000000 0.0065000000 0.0065000000 0.0065000000 0.0065000000 0.0065000000 0.0065000000 0.0065000000 0.0065000000 0.0065000000 0.0065000000 0.0065000000 0.0065000000 0.0065000000 0.0065000000 0.0065000000 0.0065000000 0.0065000000 0.0065000000 0.0065000000 0.0065000000 0.0065000000 0.0065000000 0.0065000000 0.0065000000 0.0065000000 0.0065000000 0.0065000000 0.0065000000 0.0065000000 0.0065000000 0.0065000000 0.0065000000 0.0065000000 0.0065000000 0.0065000000 0.0065000000 0.0065000000 0.0065000000 0.0065000000 0.0065000000 0.0065000000 0.0065000000 0.0065000000 0.0065000000 0.0065000000 0.0065000000 0.0065000000 0.0065000000 0.0065000000 0.0065000000 0.0065000000 0.0065000000 0.0065000000 0.0065000000 0.0065000000 0.0065000000 0.0065000000 0.0065000000 0.0065000000 0.0065000000 0.0065000000 0.0065000000 0.0065000000 0.0065000000 0.0065000000 0.0065000000 0.0065000000 0.0065000000 0.0065000000 0.0065000000 0.0065000000 0.0065000000 0.0065000000 0.0065000000 0.0065000000 0.0065000000 0.0065000000 0.0065000000 0.0065000000 0.0065000000 0.0065000000 0.0065000000 0.0065000000 0.0065000000 0.0065000000 0.0065000000 0.0065000000 0.0065000000 0.0065000000 0.0065000000 0.0065000000 0.0065000000 0.0065000000 0.0065000000 0.0065000000 0.0065000000 0.0065000000 0.0065000000 0.0065000000 0.0065000000 0.0065000000 0.0065000000 0.0065000000 0.0065000000 0.0065000000 0.0065000000 0.0065000000 0.0065000000 0.0065000000 0.0065000000 0.0065000000 0.0065000000 0.0065000000 0.0065000000 0.0065000000 0.0065000000 0.0065000000 0.0065000000 0.0065000000 0.0065000000 0.0065000000 0.0065000000 0.0065000000 0.0065000000 0.0065000000 0.0065000000 0.0065000000 0.0065000000 0.0065000000 0.0065000000 0.0065000000 0.0065000000 0.0065000000 0.0065000000 0.0065000000 0.0065000000 0.0065000000 0.0065000000 0.0065000000 0.0065000000 0.0065000000 0.0065000000 0.0065000000 0.0065000000 0.0065000000 0.0065000000 0.0065000000 0.0065000000 0.0065000000 0.0065000000 0.0065000000 0.0065000000 0.0065000000 0.0065000000 0.0065000000 0.0065000000 0.0065000000 0.0065000000 0.0065000000 0.0065000000 0.0065000000 0.0065000000 0.0065000000 0.0065000000 0.0065000000 0.0065000000 0.0065000000 0.0065000000 0.0065000000 0.0065000000 0.0065000000 0.0065000000 0.0065000000 0.0065000000 0.0065000000 0.0065000000 0.0065000000 0.0065000000 0.0065000000 0.0065000000 0.0065000000 0.0065000000 0.0065000000 0.0065000000 0.0065000000 0.0065000000 0.0065000000 0.0065000000 0.0065000000 0.0065000000 0.0065000000 0.0065000000 0.0065000000 0.0065000000 0.0065000000 0.0065000000 0.0065000000 0.0065000000 0.0065000000 0.0065000000 0.0065000000 0.0065000000 0.0065000000 0.0065000000 0.0065000000 0.0065000000 0.0065000000 0.0065000000 0.0065000000 0.0065000000 0.0065000000 0.0065000000 0.0065000000 0.0065000000 0.0065000000 0.0065000000 0.0065000000 0.0065000000 0.0065000000 0.0065000000 0.0065000000 0.0065000000 0.0065000000 0.0065000000 0.0065000000 0.0065000000 0.0065000000 0.0065000000 0.0065000000 0.0065000000 0.0065000000 0.0065000000 0.0065000000 0.0065000000 0.0065000000 0.0065000000 0.0065000000 0.0065000000 0.0065000000 0.0065000000 0.0065000000 0.0065000000 0.0065000000 0.0065000000 0.0065000000 0.0065000000 0.0065000000 0.0065000000 0.0065000000 0.0065000000 0.0065000000 0.0065000000 0.0065000000 0.0065000000 0.0065000000 0.0065000000 0.0065000000 0.0065000000 0.0065000000 0.0065000000 0.0065000000 0.0065000000 0.0065000000 0.0065000000 0.0065000000 0.0065000000 0.0065000000 0.0065000000 0.0065000000 0.0065000000 0.0065000000 0.0065000000 0.0065000000 0.0065000000 0.0065000000 0.0065000000 0.0065000000 0.0065000000 0.0065000000 0.0065000000 0.0065000000 0.0065000000 0.0065000000 0.0065000000 0.0065000000 0.0065000000 0.0065000000 0.0065000000 0.0065000000 0.0065000000 0.0065000000 0.0065000000 0.0065000000 0.0065000000 0.0065000000 0.0065000000 0.0065000000 0.0065000000 0.0065000000 0.0065000000 0.0065000000 0.0065000000 0.0065000000 0.0065000000 0.0065000000 0.0065000000 0.0065000000 0.0065000000 0.0065000000 0.0065000000 0.0065000000 0.0065000000 0.0065000000 0.0065000000 0.0065000000 0.0065000000 0.0065000000 0.0065000000 0.0065000000 0.0065000000 0.0065000000 0.0065000000 0.0065000000 0.0065000000 0.0065000000 0.0065000000 0.0065000000 0.0065000000 0.0065000000 0.0065000000 0.0065000000 0.0065000000 0.0065000000 0.0065000000 0.0065000000 0.0065000000 0.0065000000 0.0065000000 0.0065000000 0.0065000000 0.0065000000 0.0065000000 0.0065000000 0.0065000000 0.0065000000 0.0065000000 0.0065000000 0.0065000000 0.0065000000 0.0065000000 0.0065000000 0.0065000000 0.0065000000 0.0065000000 0.0065000000 0.0065000000 0.0065000000 0.0065000000 0.0065000000 0.0065000000 0.0065000000 0.0065000000 0.0065000000 0.0065000000 0.0065000000 0.0065000000 0.0065000000 0.0065000000 0.0065000000 0.0065000000 0.0065000000 0.0065000000 0.0065000000 0.0065000000 0.0065000000 0.0065000000 0.0065000000 0.0065000000 0.0065000000 0.0065000000 0.0065000000 0.0065000000 0.0065000000 0.0065000000 0.0065000000 0.0065000000 0.0065000000 0.0065000000 0.0065000000 0.0065000000 0.0065000000 0.0065000000 0.0065000000 0.0065000000 0.0065000000 0.0065000000 0.0065000000 0.0065000000 0.0065000000 0.0065000000 0.0065000000 0.0065000000 0.0065000000 0.0065000000 0.0065000000 0.0065000000 0.0065000000 0.0065000000 0.0065000000 0.0065000000 0.0065000000 0.0065000000 0.0065000000 0.0065000000 0.0065000000 0.0065000000 0.0065000000 0.0065000000 0.0065000000 0.0065000000 0.0065000000 0.0065000000 0.0065000000 0.0065000000 0.0065000000 0.0065000000 0.0065000000 0.0065000000 0.0065000000 0.0065000000 0.0065000000 0.0065000000 0.0065000000 0.0065000000 0.0065000000 0.0065000000 0.0065000000 0.0065000000 0.0065000000 0.0065000000 0.0065000000 0.0065000000 0.0065000000 0.0065000000 0.0065000000 0.0065000000 0.0065000000 0.0065000000 0.0065000000 0.0065000000 0.0065000000 0.0065000000 0.0065000000 0.0065000000 0.0065000000 0.0065000000 0.0065000000 0.0065000000 0.0065000000 0.0065000000 0.0065000000 0.0065000000 0.0065000000 0.0065000000 0.0065000000 0.0065000000 0.0065000000 0.0065000000 0.0065000000 0.0065000000 0.0065000000 0.0065000000 0.0065000000 0.0065000000 0.0065000000 0.0065000000 0.0065000000 0.0065000000 0.0065000000 0.0065000000 0.0065000000 0.0065000000 0.0065000000 0.0065000000 0.0065000000 0.0065000000 0.0065000000 0.0065000000 0.0065000000 0.0065000000 0.0065000000 0.0065000000 0.0065000000 0.0065000000 0.0065000000 0.0065000000 0.0065000000 0.0065000000 0.0065000000 0.0065000000 0.0065000000 0.0065000000 0.0065000000 0.0065000000 0.0065000000 0.0065000000 0.0065000000 0.0065000000 0.0065000000 0.0065000000 0.0065000000 0.0065000000 0.0065000000 0.0065000000 0.0065000000 0.0065000000 0.0065000000 0.0065000000 0.0065000000 0.0065000000 0.0065000000 0.0065000000 0.0065000000 0.0065000000 0.0065000000 0.0065000000 0.0065000000 0.0065000000 0.0065000000 0.0065000000 0.0065000000 0.0065000000 0.0065000000 0.0065000000 0.0065000000 0.0065000000 0.0065000000 0.0065000000 0.0065000000 0.0065000000 0.0065000000 0.0065000000 0.0065000000 0.0065000000 0.0065000000 0.0065000000 0.0065000000 0.0065000000 0.0065000000 0.0065000000 0.0065000000 0.0065000000 0.0065000000 0.0065000000 0.0065000000 0.0065000000 0.0065000000 0.0065000000 0.0065000000 0.0065000000 0.0065000000 0.0065000000 0.0065000000 0.0065000000 0.0065000000 0.0065000000 0.0065000000 0.0065000000 0.0065000000 0.0065000000 0.0065000000 0.0065000000 0.0065000000 0.0065000000 0.0065000000 0.0065000000 0.0065000000 0.0065000000 0.0065000000 0.0065000000 0.0065000000 0.0065000000 0.0065000000 0.0065000000 0.0065000000 0.0065000000 0.0065000000 0.0065000000 0.0065000000 0.0065000000 0.0065000000 0.0065000000 0.0065000000 0.0065000000 0.0065000000 0.0065000000 0.0065000000 0.0065000000 0.0065000000 0.0065000000 0.0065000000 0.0065000000 0.0065000000 0.0065000000 0.0065000000 0.0065000000 0.0065000000 0.0065000000 0.0065000000 0.0065000000 0.0065000000 0.0065000000 0.0065000000 0.0065000000 0.0065000000 0.0065000000 0.0065000000 0.0065000000 0.0065000000 0.0065000000 0.0065000000 0.0065000000 0.0065000000 0.0065000000 0.0065000000 0.0065000000 0.0065000000 0.0065000000 0.0065000000 0.0065000000 0.0065000000 0.0065000000 0.0065000000 0.0065000000 0.0065000000 0.0065000000 0.0065000000 0.0065000000 0.0065000000 0.0065000000 0.0065000000 0.0065000000 0.0065000000 0.0065000000 0.0065000000 0.0065000000 0.0065000000 0.0065000000 0.0065000000 0.0065000000 0.0065000000 0.0065000000 0.0065000000 0.0065000000 0.0065000000 0.0065000000 0.0065000000 0.0065000000 0.0065000000 0.0065000000 0.0065000000 0.0065000000 0.0065000000 0.0065000000 0.0065000000 0.0065000000 0.0065000000 0.0065000000 0.0065000000 0.0065000000 0.0065000000 0.0065000000 0.0065000000 0.0065000000 0.0065000000 0.0065000000 0.0065000000 0.0065000000 0.0065000000 0.0065000000 0.0065000000 0.0065000000 0.0065000000 0.0065000000 0.0065000000 0.0065000000 0.0065000000 0.0065000000 0.0065000000 0.0065000000 0.0065000000 0.0065000000 0.0065000000 0.0065000000 0.0065000000 0.0065000000 0.0065000000 0.0065000000 0.0065000000 0.0065000000 0.0065000000 0.0065000000 0.0065000000 0.0065000000 0.0065000000 0.0065000000 0.0065000000 0.0065000000 0.0065000000 0.0065000000 0.0065000000 0.0065000000 0.0065000000 0.0065000000 0.0065000000 0.0065000000 0.0065000000 0.0065000000 0.0065000000 0.0065000000 0.0065000000 0.0065000000 0.0065000000 0.0065000000 0.0065000000 0.0065000000 0.0065000000 0.0065000000 0.0065000000 0.0065000000 0.0065000000 0.0065000000 0.0065000000 0.0065000000 0.0065000000 0.0065000000 0.0065000000 0.0065000000 0.0065000000 0.0065000000 0.0065000000 0.0065000000 0.0065000000 0.0065000000 0.0065000000 0.0065000000 0.0065000000 0.0065000000 0.0065000000 0.0065000000 0.0065000000 0.0065000000 0.0065000000 0.0065000000 0.0065000000 0.0065000000 0.0065000000 0.0065000000 0.0065000000 0.0065000000 0.0065000000 0.0065000000 0.0065000000 0.0065000000 0.0065000000 0.0065000000 0.0065000000 0.0065000000 0.0065000000 0.0065000000 0.0065000000 0.0065000000 0.0065000000 0.0065000000 0.0065000000 0.0065000000 0.0065000000 0.0065000000 0.0065000000 0.0065000000 0.0065000000 0.0065000000 0.0065000000 0.0065000000 0.0065000000 0.0065000000 0.0065000000 0.0065000000 0.0065000000 0.0065000000 0.0065000000 0.0065000000 0.0065000000 0.0065000000 0.0065000000 0.0065000000 0.0065000000 0.0065000000 0.0065000000 0.0065000000 0.0065000000 0.0065000000 0.0065000000 0.0065000000 0.0065000000 0.0065000000 0.0065000000 0.0065000000 0.0065000000 0.0065000000 0.0065000000 0.0065000000 0.0065000000 0.0065000000 0.0065000000 0.0065000000 0.0065000000 0.0065000000 0.0065000000 0.0065000000 0.0065000000 0.0065000000 0.0065000000 0.0065000000 0.0065000000 0.0065000000 0.0065000000 0.0065000000 0.0065000000 0.0065000000 0.0065000000 0.0065000000 0.0065000000 0.0065000000 0.0065000000 0.0065000000 0.0065000000 0.0065000000 0.0065000000 0.0065000000 0.0065000000 0.0065000000 0.0065000000 0.0065000000 0.0065000000 0.0065000000 0.0065000000 0.0065000000 0.0065000000 0.0065000000 0.0065000000 0.0065000000 0.0065000000 0.0065000000 0.0065000000 0.0065000000 0.0065000000 0.0065000000 0.0065000000 0.0065000000 0.0065000000 0.0065000000 0.0065000000 0.0065000000 0.0065000000 0.0065000000 0.0065000000 0.0065000000 0.0065000000 0.0065000000 0.0065000000 0.0065000000 0.0065000000 0.0065000000 0.0065000000 0.0065000000 0.0065000000 0.0065000000 0.0065000000 0.0065000000 0.0065000000 0.0065000000 0.0065000000 0.0065000000 0.0065000000 0.0065000000 0.0065000000 0.0065000000 0.0065000000 0.0065000000 0.0065000000 0.0065000000 0.0065000000 0.0065000000 0.0065000000 0.0065000000 0.0065000000 0.0065000000 0.0065000000 0.0065000000 0.0065000000 0.0065000000 0.0065000000 0.0065000000 0.0065000000 0.0065000000 0.0065000000 0.0065000000 0.0065000000 0.0065000000 0.0065000000 0.0065000000 0.0065000000 0.0065000000 0.0065000000 0.0065000000 0.0065000000 0.0065000000 0.0065000000 0.0065000000 0.0065000000 0.0065000000 0.0065000000 0.0065000000 0.0065000000 0.0065000000 0.0065000000 0.0065000000 0.0065000000 0.0065000000 0.0065000000 0.0065000000 0.0065000000 0.0065000000 0.0065000000 0.0065000000 0.0065000000 0.0065000000 0.0065000000 0.0065000000 0.0065000000 0.0065000000 0.0065000000 0.0065000000 0.0065000000 0.0065000000 0.0065000000 0.0065000000 0.0065000000 0.0065000000 0.0065000000 0.0065000000 0.0065000000 0.0065000000 0.0065000000 0.0065000000 0.0065000000 0.0065000000 0.0065000000 0.0065000000 0.0065000000 0.0065000000 0.0065000000 0.0065000000 0.0065000000 0.0065000000 0.0065000000 0.0065000000 0.0065000000 0.0065000000 0.0065000000 0.0065000000 0.0065000000 0.0065000000 0.0065000000 0.0065000000 0.006500000