<?xml version="1.0"?>
<VTKFile type="UnstructuredGrid" version="0.1" byte_order="LittleEndian">
  <UnstructuredGrid>
    <FieldData>
      <DataArray type="Float32" Name="TIME"  NumberOfTuples="1" format="ascii"> 2.9479695624 </DataArray>
      <DataArray type="Int32"   Name="STEP"  NumberOfTuples="1" format="ascii"> 39530 </DataArray>
    </FieldData>
    <Piece NumberOfPoints="18081" NumberOfCells="18081">
      <Points>
        <DataArray type="Float32" NumberOfComponents="3" format="ascii">
 0.0855802993 0.0908607896 0.0091914483 0.0125354531 0.0883593918 0.0005788189 0.1132242580 0.0598532770 0.0066593890 0.0823320871 0.0016253204 0.0104148616 0.1073245698 0.0288910592 0.0069206826 0.0141030394 0.0018883157 0.0125273158 0.4746448788 0.0094956354 0.0116766412 0.4082612518 0.0397369552 0.0050128978 0.4969648706 0.0018033697 0.0001699827 0.4209097210 0.0333176138 0.0078652566 0.4459916694 0.0203649702 0.0160631948 0.4990243673 0.0378214071 0.0101726096 0.4853224803 0.0087613681 0.0200996625 0.3618233438 0.0208271084 0.0180968600 0.4700594684 0.0443529147 0.0197798705 0.4093062238 0.0143408487 0.0250650459 0.4981902564 0.0231987365 0.0142339123 0.3151472512 0.0813489050 0.0233510800 0.3812778080 0.0233216389 0.0258941010 0.2040473711 0.0032498515 0.0133019717 0.4667290328 0.0039053539 0.0257968297 0.1138518670 0.0966133130 0.0005861185 0.0237419141 0.0631933789 0.0120825377 0.0869546221 0.0481727520 0.0050437034 0.0872021262 0.0447692785 0.0002130621 0.0220921169 0.0209539795 0.0042851435 0.4105294500 -0.0004796605 0.0060505165 0.4875275284 0.0009136124 0.0102669405 0.4355938835 0.0295083473 0.0048305978 0.4807846071 0.0172496323 0.0217397569 0.4808774810 0.0144063095 0.0009959503 0.4068696617 0.0627945705 0.0179836543 0.4928093314 0.0218091639 0.0185371035 0.4024355888 0.0576236855 0.0132351219 0.4919383170 0.0274423483 0.0108508568 0.3476629420 0.0262663290 0.0202071066 0.4561637859 0.0249547252 0.0080509934 0.3722149016 0.0202432566 0.0239731901 0.0804694061 0.0450886435 0.0167624455 0.0186169079 0.0273835644 0.0129446082 0.3528260092 0.0208059538 0.0140847959 0.2666361813 0.0963088760 0.0263878862 0.1398138950 0.0206735379 0.0074060772 0.0012370379 0.0877421580 0.0002205144 0.0977003202 0.0681785347 0.0013940916 0.2040618828 0.0710091209 0.0204985397 0.3716947899 0.0051643330 0.0033462390 0.3845040642 0.0357287083 0.0135909265 0.4849462624 0.0148678595 0.0010888192 0.4984656771 0.0709295314 0.0087418287 0.4993417679 0.0730364552 0.0188717731 0.4635426526 0.0036586542 0.0021413175 0.3154330813 0.0527719952 0.0247455031 0.3762656862 0.0721552417 0.0055330663 0.4635079607 0.0425888283 0.0223107922 0.4720523718 0.0547782017 0.0149218039 0.4089924029 0.0309103120 0.0002897370 0.4277015256 0.0580093616 0.0002273948 0.4079027312 0.0075683075 0.0200180379 0.0307715597 0.0702242396 0.0081722903 0.4015662486 0.0439178061 0.0245770323 0.4908449487 0.0641327803 0.0114582386 0.3963448500 0.0553445017 0.0162401205 0.0971988729 0.0537374185 0.0013131438 0.1019373461 0.0088373074 0.0109861719 0.0974455280 0.0761936065 0.0056360373 0.0978833128 0.0378140322 0.0057984484 0.3850094945 0.0122491850 0.0046502646 0.4301984580 0.0152214833 0.0005662573 0.4441042012 0.0097064981 -0.0000944783 0.3156384434 0.0241429006 0.0202865370 0.2811800286 0.0022849323 0.0231018729 0.4859177789 0.0517276496 0.0010476486 0.3921796246 0.0732544561 0.0204371900 0.3462777530 0.0643149765 0.0104914802 0.4433202522 0.0238075413 0.0125827560 0.3767366538 0.0096533866 0.0033008654 0.2866248523 0.0460477870 0.0083012814 0.3369627407 0.0284959099 0.0231107611 0.2621090838 0.0239069634 0.0267894760 0.0365898537 0.0751315966 0.0088721778 0.0789300710 0.1004151706 0.0061637212 0.0632048208 0.0512557796 0.0196985386 0.4574499099 0.0858592516 0.0127058185 0.1755218441 0.0327125286 0.0067151861 0.1993668275 0.0185380712 0.0002264859 0.0471933125 0.0565525016 0.0042381340 0.3083880033 0.0035587150 0.0131163689 0.3664240965 0.0216522281 0.0000106693 0.4226552743 -0.0002850062 0.0117670823 0.4604583587 0.0456955161 0.0056146277 0.4110738783 0.0178535611 0.0056341933 0.3965397521 0.0103078994 0.0029030045 0.3724521143 0.0251547938 0.0059565679 0.4673468364 0.0726802633 0.0014440651 0.3519183715 0.0702938481 0.0180043795 0.3241975138 0.0448000127 0.0163198855 0.3955869876 0.0637017883 0.0010402462 0.2449489520 0.0430931476 0.0194262563 0.3553431852 0.0537118223 0.0242282385 0.4437499075 0.0056001891 0.0257500161 0.3412604090 0.0277481073 0.0247473290 0.2885943313 0.0602077314 0.0227831813 0.3733593580 0.0024307706 0.0200119637 0.3094335825 0.0593171073 0.0243631831 0.1644132841 0.0212613078 0.0122036768 0.0915388470 0.0436403939 0.0012880073 0.0939498439 0.0637911481 0.0006532069 0.0083643516 0.0535630559 0.0039895955 0.4159833623 0.0063802734 0.0066391916 0.4748270296 0.0344444332 0.0006860820 0.3400142109 0.0427251261 0.0076765435 0.3434823922 0.0229610078 0.0194676303 0.2137596098 0.0375735333 0.0264704807 0.3865077980 0.0418371153 -0.0005403990 0.3838811804 0.0466525559 0.0085377839 0.3516307170 0.0571188309 0.0096538989 0.3572614197 0.0684117175 0.0129285098 0.2960218376 0.0823911587 0.0238335605 0.3743620495 0.0451154495 0.0184967568 0.3541893068 0.0622695489 0.0189416168 0.2560705885 0.0100636663 0.0224797754 0.1175167862 0.0731841321 0.0118816340 0.3239995661 0.0054731264 0.0055841779 0.3432980780 0.0126023718 0.0249917705 0.4754027239 0.0655319571 0.0155544436 0.1731580157 0.0324102047 0.0007839951 0.2031917360 0.0075537228 0.0102484937 0.0776077893 0.0496941162 -0.0000415980 0.3579623160 0.0214330162 0.0001857822 0.3765792373 0.0158855766 0.0039086269 0.4120276137 0.0013167025 0.0000788624 0.3214676447 0.0327434857 0.0042087674 0.4420544451 0.0476803868 0.0009479103 0.3308695485 0.0248517430 0.0040226693 0.3450936464 0.0339377301 -0.0002506126 0.3553431465 0.0571058687 0.0029948051 0.3957193385 0.0603363193 0.0062551082 0.2767562550 0.0556447295 0.0177710869 0.4274234890 0.0729505653 0.0059346293 0.2829552364 0.0259784389 0.0039432618 0.4246186070 0.0597631392 0.0209511762 0.0131154072 0.0662779046 0.0080160775 0.1376540349 0.0326854014 0.0114794218 0.0886153026 0.0317650365 0.0143423209 0.0258240800 0.0913864355 0.0077053736 0.2779006700 0.1261564240 0.0256080567 0.1634323812 0.0178644578 0.0096998496 0.1088764019 0.0177545799 0.0011170114 0.1354219307 0.0177125659 0.0001374641 0.3633261031 0.0110130257 -0.0001553618 0.3500991294 0.0184117388 0.0099582843 0.3774207836 -0.0000465105 0.0089715219 0.3842919687 0.0357144754 -0.0002404212 0.1374643511 0.0405090983 0.0274537682 0.4082071807 0.0472585906 -0.0000922705 0.3457897110 0.0379702791 0.0030450904 0.4052905960 0.0888876087 0.0001574193 0.4259591710 0.0490940378 0.0163394339 0.2763785459 0.0625937997 0.0089563912 0.3397196400 0.0238363846 0.0174557903 0.2987176983 0.0427441978 0.0152439576 0.2249299536 0.0352054561 0.0264876019 0.2070636925 0.0646858392 0.0262052715 0.0471838468 0.0710972097 0.0091543634 0.2690662404 0.0128619835 0.0125937699 0.2072450542 0.0475339619 0.0256366011 0.0896859053 0.0519763430 0.0202119206 0.1015510128 0.0121354685 0.0053066749 0.2099332123 0.0342362195 0.0061898500 0.1482075205 0.0142203476 0.0005142928 0.3499724541 -0.0001101575 0.0142234390 0.4263309760 0.0000180401 0.0062637938 0.4166206597 0.0002960617 0.0045151503 0.3618934364 0.0068971028 0.0047112121 0.2966702344 0.0224736362 0.0039150100 0.0588255603 0.0090978528 0.0043353006 0.0153091561 0.0549765197 0.0002869648 0.3517028023 0.0628343672 0.0082818387 0.4188541917 0.0873648568 0.0004676008 0.3541980238 0.0614087894 0.0005526067 0.3772912066 0.0652659865 0.0148453687 0.3958874781 0.0568245614 0.0217883800 0.4397689431 0.0889188908 0.0181533415 0.4138838983 0.0752798076 0.0246428473 0.0208924555 0.0483138204 0.0047321998 0.0800002465 0.0309463286 0.0141441362 0.4343558366 0.0399774473 0.0053750947 0.0920393072 0.0511763205 0.0136365861 0.1841985939 0.0350455468 0.0135782867 0.1801519347 0.0550115943 0.0093999787 0.1909869876 0.0418781878 0.0004840331 0.3563148640 -0.0004116905 0.0040315738 0.3731409256 0.0115993209 0.0068952125 0.3835154415 0.0074184954 -0.0002210702 0.3779130875 0.0266691203 0.0031259865 0.3709973259 0.0457255095 0.0001085587 0.3696577961 0.0174865093 0.0035897417 0.2861660196 0.0072087360 -0.0002832475 0.3850625280 0.0665844492 -0.0000245808 0.4348550434 0.0340688672 0.0157629519 0.3510896177 0.0432232550 0.0125822413 0.4176302004 0.0192063013 0.0016162484 0.2699484817 0.0913524211 0.0213998042 0.2401243493 0.0012838044 -0.0000273091 0.2996886744 0.0691952644 0.0236335984 0.1465988397 0.0989074079 0.0301081586 0.3874787921 0.0589174893 0.0141069693 0.0424643112 0.0222567643 0.0155830836 0.4436513394 0.0600194954 0.0155401745 0.1776813166 0.0320363877 0.0003905541 0.1434270098 0.0320422898 0.0000846687 0.0795107686 0.0403321790 0.0008071196 0.3181387907 0.0278379077 0.0034382971 0.2782608441 0.0252884618 0.0122632726 0.3835072455 0.0060680157 0.0123459171 0.3152257091 0.0399952078 -0.0001258117 0.4070275524 0.0834514120 0.0007228632 0.0811471106 0.0515475200 0.0086145990 0.3581647467 0.0135637301 -0.0005993680 0.4433468247 0.0726173473 0.0005787164 0.4817378868 0.0880010566 0.0011986563 0.2888504123 0.0667201528 0.0045763944 0.4788998027 0.0676265728 0.0097126024 0.3308060276 0.0557238093 0.0160789599 0.2291661276 0.0675875841 0.0125783658 0.2134460565 0.0650718383 0.0242397941 0.0747780125 0.0244498457 0.0006613103 0.2433836223 0.0645345446 0.0052126613 0.3373508736 0.1047153198 0.0182365192 0.4507329509 0.0653947444 0.0135121277 0.1780113313 0.0374630692 0.0095745153 0.1766657656 0.0586769559 0.0106596582 0.2014933779 0.0123232821 0.0002912314 0.3170144419 0.0041666224 0.0150284463 0.0523063757 0.0434602378 0.0049076016 0.3039204940 0.0320331759 0.0051273557 0.3415175853 0.0380506929 0.0000896034 0.2892120302 0.0247648398 0.0052738396 0.4317919604 0.0651054634 0.0007113488 0.3008544440 0.0473002991 0.0038810876 0.4337418739 0.0404783405 0.0137759183 0.4431354934 0.0848533954 0.0148774292 0.42
[...]
      <PointData Scalars="smoothLength">
        <DataArray type="Float32" Name="smoothLength" format="ascii">
 0.0065000000 0.0065000000 0.0065000000 0.0065000000 0.0065000000 0.0065000000 0.0065000000 0.0065000000 0.0065000000 0.0065000000 0.0065000000 0.0065000000 0.0065000000 0.0065000000 0.0065000000 0.0065000000 0.0065000000 0.0065000000 0.0065000000 0.0065000000 0.0065000000 0.0065000000 0.0065000000 0.0065000000 0.0065000000 0.0065000000 0.0065000000 0.0065000000 0.0065000000 0.0065000000 0.0065000000 0.0065000000 0.0065000000 0.0065000000 0.0065000000 0.0065000000 0.0065000000 0.0065000000 0.0065000000 0.0065000000 0.0065000000 0.0065000000 0.0065000000 0.0065000000 0.0065000000 0.0065000000 0.0065000000 0.0065000000 0.0065000000 0.0065000000 0.0065000000 0.0065000000 0.0065000000 0.0065000000 0.0065000000 0.0065000000 0.0065000000 0.0065000000 0.0065000000 0.0065000000 0.0065000000 0.0065000000 0.0065000000 0.0065000000 0.0065000000 0.0065000000 0.0065000000 0.0065000000 0.0065000000 0.0065000000 0.0065000000 0.0065000000 0.0065000000 0.0065000000 0.0065000000 0.0065000000 0.0065000000 0.0065000000 0.0065000000 0.0065000000 0.0065000000 0.0065000000 0.0065000000 0.0065000000 0.0065000000 0.0065000000 0.0065000000 0.0065000000 0.0065000000 0.0065000000 0.0065000000 0.0065000000 0.0065000000 0.0065000000 0.0065000000 0.0065000000 0.0065000000 0.0065000000 0.0065000000 0.0065000000 0.0065000000 0.0065000000 0.0065000000 0.0065000000 0.0065000000 0.0065000000 0.0065000000 0.0065000000 0.0065000000 0.0065000000 0.0065000000 0.0065000000 0.0065000000 0.0065000000 0.0065000000 0.0065000000 0.0065000000 0.0065000000 0.0065000000 0.0065000000 0.0065000000 0.0065000000 0.0065000000 0.0065000000 0.0065000000 0.0065000000 0.0065000000 0.0065000000 0.0065000000 0.0065000000 0.0065000000 0.0065000000 0.0065000000 0.0065000000 0.0065000000 0.0065000000 0.0065000000 0.0065000000 0.0065000000 0.0065000000 0.0065000000 0.0065000000 0.0065000000 0.0065000000 0.0065000000 0.0065000000 0.0065000000 0.0065000000 0.0065000000 0.0065000000 0.0065000000 0.0065000000 0.0065000000 0.0065000000 0.0065000000 0.0065000000 0.0065000000 0.0065000000 0.0065000000 0.0065000000 0.0065000000 0.0065000000 0.0065000000 0.0065000000 0.0065000000 0.0065000000 0.0065000000 0.0065000000 0.0065000000 0.0065000000 0.0065000000 0.0065000000 0.0065000000 0.0065000000 0.0065000000 0.0065000000 0.0065000000 0.0065000000 0.0065000000 0.0065000000 0.0065000000 0.0065000000 0.0065000000 0.0065000000 0.0065000000 0.0065000000 0.0065000000 0.0065000000 0.0065000000 0.0065000000 0.0065000000 0.0065000000 0.0065000000 0.0065000000 0.0065000000 0.0065000000 0.0065000000 0.0065000000 0.0065000000 0.0065000000 0.0065000000 0.0065000000 0.0065000000 0.0065000000 0.0065000000 0.0065000000 0.0065000000 0.0065000000 0.0065000000 0.0065000000 0.0065000000 0.0065000000 0.0065000000 0.0065000000 0.0065000000 0.0065000000 0.0065000000 0.0065000000 0.0065000000 0.0065000000 0.0065000000 0.0065000000 0.0065000000 0.0065000000 0.0065000000 0.0065000000 0.0065000000 0.0065000000 0.0065000000 0.0065000000 0.0065000000 0.0065000000 0.0065000000 0.0065000000 0.0065000000 0.0065000000 0.0065000000 0.0065000000 0.0065000000 0.0065000000 0.0065000000 0.0065000000 0.0065000000 0.0065000000 0.0065000000 0.0065000000 0.0065000000 0.0065000000 0.0065000000 0.0065000000 0.0065000000 0.0065000000 0.0065000000 0.0065000000 0.0065000000 0.0065000000 0.0065000000 0.0065000000 0.0065000000 0.0065000000 0.0065000000 0.0065000000 0.0065000000 0.0065000000 0.0065000000 0.0065000000 0.0065000000 0.0065000000 0.0065000000 0.0065000000 0.0065000000 0.0065000000 0.0065000000 0.0065000000 0.0065000000 0.0065000000 0.0065000000 0.0065000000 0.0065000000 0.0065000000 0.0065000000 0.0065000000 0.0065000000 0.0065000000 0.0065000000 0.0065000000 0.0065000000 0.0065000000 0.0065000000 0.0065000000 0.0065000000 0.0065000000 0.0065000000 0.0065000000 0.0065000000 0.0065000000 0.0065000000 0.0065000000 0.0065000000 0.0065000000 0.0065000000 0.0065000000 0.0065000000 0.0065000000 0.0065000000 0.0065000000 0.0065000000 0.0065000000 0.0065000000 0.0065000000 0.0065000000 0.0065000000 0.0065000000 0.0065000000 0.0065000000 0.0065000000 0.0065000000 0.0065000000 0.0065000000 0.0065000000 0.0065000000 0.0065000000 0.0065000000 0.0065000000 0.0065000000 0.0065000000 0.0065000000 0.0065000000 0.0065000000 0.0065000000 0.0065000000 0.0065000000 0.0065000000 0.0065000000 0.0065000000 0.0065000000 0.0065000000 0.0065000000 0.0065000000 0.0065000000 0.0065000000 0.0065000000 0.0065000000 0.0065000000 0.0065000000 0.0065000000 0.0065000000 0.0065000000 0.0065000000 0.0065000000 0.0065000000 0.0065000000 0.0065000000 0.0065000000 0.0065000000 0.0065000000 0.0065000000 0.0065000000 0.0065000000 0.0065000000 0.0065000000 0.0065000000 0.0065000000 0.0065000000 0.0065000000 0.0065000000 0.0065000000 0.0065000000 0.0065000000 0.0065000000 0.0065000000 0.0065000000 0.0065000000 0.0065000000 0.0065000000 0.0065000000 0.0065000000 0.0065000000 0.0065000000 0.0065000000 0.0065000000 0.0065000000 0.0065000000 0.0065000000 0.0065000000 0.0065000000 0.0065000000 0.0065000000 0.0065000000 0.0065000000 0.0065000000 0.0065000000 0.0065000000 0.0065000000 0.0065000000 0.0065000000 0.0065000000 0.0065000000 0.0065000000 0.0065000000 0.0065000000 0.0065000000 0.0065000000 0.0065000000 0.0065000000 0.0065000000 0.0065000000 0.0065000000 0.0065000000 0.0065000000 0.0065000000 0.0065000000 0.0065000000 0.0065000000 0.0065000000 0.0065000000 0.0065000000 0.0065000000 0.0065000000 0.0065000000 0.0065000000 0.0065000000 0.0065000000 0.0065000000 0.0065000000 0.0065000000 0.0065000000 0.0065000000 0.0065000000 0.0065000000 0.0065000000 0.0065000000 0.0065000000 0.0065000000 0.0065000000 0.0065000000 0.0065000000 0.0065000000 0.0065000000 0.0065000000 0.0065000000 0.0065000000 0.0065000000 0.0065000000 0.0065000000 0.0065000000 0.0065000000 0.0065000000 0.0065000000 0.0065000000 0.0065000000 0.0065000000 0.0065000000 0.0065000000 0.0065000000 0.0065000000 0.0065000000 0.0065000000 0.0065000000 0.0065000000 0.0065000000 0.0065000000 0.0065000000 0.0065000000 0.0065000000 0.0065000000 0.0065000000 0.0065000000 0.0065000000 0.0065000000 0.0065000000 0.0065000000 0.0065000000 0.0065000000 0.0065000000 0.0065000000 0.0065000000 0.0065000000 0.0065000000 0.0065000000 0.0065000000 0.0065000000 0.0065000000 0.0065000000 0.0065000000 0.0065000000 0.0065000000 0.0065000000 0.0065000000 0.0065000000 0.0065000000 0.0065000000 0.0065000000 0.0065000000 0.0065000000 0.0065000000 0.0065000000 0.0065000000 0.0065000000 0.0065000000 0.0065000000 0.0065000000 0.0065000000 0.0065000000 0.0065000000 0.0065000000 0.0065000000 0.0065000000 0.0065000000 0.0065000000 0.0065000000 0.0065000000 0.0065000000 0.0065000000 0.0065000000 0.0065000000 0.0065000000 0.0065000000 0.0065000000 0.0065000000 0.0065000000 0.0065000000 0.0065000000 0.0065000000 0.0065000000 0.0065000000 0.0065000000 0.0065000000 0.0065000000 0.0065000000 0.0065000000 0.0065000000 0.0065000000 0.0065000000 0.0065000000 0.0065000000 0.0065000000 0.0065000000 0.0065000000 0.0065000000 0.0065000000 0.0065000000 0.0065000000 0.0065000000 0.0065000000 0.0065000000 0.0065000000 0.0065000000 0.0065000000 0.0065000000 0.0065000000 0.0065000000 0.0065000000 0.0065000000 0.0065000000 0.0065000000 0.0065000000 0.0065000000 0.0065000000 0.0065000000 0.0065000000 0.0065000000 0.0065000000 0.0065000000 0.0065000000 0.0065000000 0.0065000000 0.0065000000 0.0065000000 0.0065000000 0.0065000000 0.0065000000 0.0065000000 0.0065000000 0.0065000000 0.0065000000 0.0065000000 0.0065000000 0.0065000000 0.0065000000 0.0065000000 0.0065000000 0.0065000000 0.0065000000 0.0065000000 0.0065000000 0.0065000000 0.0065000000 0.0065000000 0.0065000000 0.0065000000 0.0065000000 0.0065000000 0.0065000000 0.0065000000 0.0065000000 0.0065000000 0.0065000000 0.0065000000 0.0065000000 0.0065000000 0.0065000000 0.0065000000 0.0065000000 0.0065000000 0.0065000000 0.0065000000 0.0065000000 0.0065000000 0.0065000000 0.0065000000 0.0065000000 0.0065000000 0.0065000000 0.0065000000 0.0065000000 0.0065000000 0.0065000000 0.0065000000 0.0065000000 0.0065000000 0.0065000000 0.0065000000 0.0065000000 0.0065000000 0.0065000000 0.0065000000 0.0065000000 0.0065000000 0.0065000000 0.0065000000 0.0065000000 0.0065000000 0.0065000000 0.0065000000 0.0065000000 0.0065000000 0.0065000000 0.0065000000 0.0065000000 0.0065000000 0.0065000000 0.0065000000 0.0065000000 0.0065000000 0.0065000000 0.0065000000 0.0065000000 0.0065000000 0.0065000000 0.0065000000 0.0065000000 0.0065000000 0.0065000000 0.0065000000 0.0065000000 0.0065000000 0.0065000000 0.0065000000 0.0065000000 0.0065000000 0.0065000000 0.0065000000 0.0065000000 0.0065000000 0.0065000000 0.0065000000 0.0065000000 0.0065000000 0.0065000000 0.0065000000 0.0065000000 0.0065000000 0.0065000000 0.0065000000 0.0065000000 0.0065000000 0.0065000000 0.0065000000 0.0065000000 0.0065000000 0.0065000000 0.0065000000 0.0065000000 0.0065000000 0.0065000000 0.0065000000 0.0065000000 0.0065000000 0.0065000000 0.0065000000 0.0065000000 0.0065000000 0.0065000000 0.0065000000 0.0065000000 0.0065000000 0.0065000000 0.0065000000 0.0065000000 0.0065000000 0.0065000000 0.0065000000 0.0065000000 0.0065000000 0.0065000000 0.0065000000 0.0065000000 0.0065000000 0.0065000000 0.0065000000 0.0065000000 0.0065000000 0.0065000000 0.0065000000 0.0065000000 0.0065000000 0.0065000000 0.0065000000 0.0065000000 0.0065000000 0.0065000000 0.0065000000 0.0065000000 0.0065000000 0.0065000000 0.0065000000 0.0065000000 0.0065000000 0.0065000000 0.0065000000 0.0065000000 0.0065000000 0.0065000000 0.0065000000 0.0065000000 0.0065000000 0.0065000000 0.0065000000 0.0065000000 0.0065000000 0.0065000000 0.0065000000 0.0065000000 0.0065000000 0.0065000000 0.0065000000 0.0065000000 0.0065000000 0.0065000000 0.0065000000 0.0065000000 0.0065000000 0.0065000000 0.0065000000 0.0065000000 0.0065000000 0.0065000000 0.0065000000 0.0065000000 0.0065000000 0.0065000000 0.0065000000 0.0065000000 0.0065000000 0.0065000000 0.0065000000 0.0065000000 0.0065000000 0.0065000000 0.0065000000 0.0065000000 0.0065000000 0.0065000000 0.0065000000 0.0065000000 0.0065000000 0.0065000000 0.0065000000 0.0065000000 0.0065000000 0.0065000000 0.0065000000 0.0065000000 0.0065000000 0.0065000000 0.0065000000 0.0065000000 0.0065000000 0.0065000000 0.0065000000 0.0065000000 0.0065000000 0.0065000000 0.0065000000 0.0065000000 0.0065000000 0.0065000000 0.0065000000 0.0065000000 0.0065000000 0.0065000000 0.0065000000 0.0065000000 0.0065000000 0.0065000000 0.0065000000 0.0065000000 0.0065000000 0.0065000000 0.0065000000 0.0065000000 0.0065000000 0.0065000000 0.0065000000 0.0065000000 0.0065000000 0.0065000000 0.0065000000 0.0065000000 0.0065000000 0.0065000000 0.0065000000 0.0065000000 0.0065000000 0.0065000000 0.0065000000 0.0065000000 0.0065000000 0.0065000000 0.0065000000 0.0065000000 0.0065000000 0.0065000000 0.0065000000 0.0065000000 0.0065000000 0.0065000000 0.0065000000 0.0065000000 0.0065000000 0.0065000000 0.0065000000 0.0065000000 0.0065000000 0.0065000000 0.0065000000 0.0065000000 0.0065000000 0.0065000000 0.0065000000 0.0065000000 0.0065000000 0.0065000000 0.0065000000 0.0065000000 0.0065000000 0.0065000000 0.0065000000 0.0065000000 0.0065000000 0.0065000000 0.0065000000 0.0065000000 0.0065000000 0.0065000000 0.0065000000 0.0065000000 0.0065000000 0.0065000000 0.0065000000 0.0065000000 0.0065000000 0.0065000000 0.0065000000 0.0065000000 0.0065000000 0.0065000000 0.0065000000 0.0065000000 0.0065000000 0.0065000000 0.0065000000 0.0065000000 0.0065000000 0.0065000000 0.0065000000 0.0065000000 0.0065000000 0.0065000000 0.0065000000 0.0065000000 0.0065000000 0.0065000000 0.0065000000 0.0065000000 0.0065000000 0.0065000000 0.0065000000 0.0065000000 0.0065000000 0.0065000000 0.0065000000 0.0065000000 0.0065000000 0.0065000000 0.0065000000 0.0065000000 0.0065000000 0.0065000000 0.0065000000 0.0065000000 0.0065000000 0.0065000000 0.0065000000 0.0065000000 0.0065000000 0.0065000000 0.0065000000 0.0065000000 0.0065000000 0.0065000000 0.0065000000 0.0065000000 0.0065000000 0.0065000000 0.0065000000 0.0065000000 0.0065000000 0.0065000000 0.0065000000 0.0065000000 0.0065000000 0.0065000000 0.0065000000 0.0065000000 0.0065000000 0.0065000000 0.0065000000 0.0065000000 0.0065000000 0.0065000000 0.0065000000 0.0065000000 0.0065000000 0.0065000000 0.0065000000 0.0065000000 0.0065000000 0.0065000000 0.0065000000 0.0065000000 0.0065000000 0.0065000000 0.0065000000 0.0065000000 0.0065000000 0.0065000000 0.0065000000 0.0065000000 0.0065000000 0.0065000000 0.0065000000 0.0065000000 0.0065000000 0.0065000000 0.0065000000 0.0065000000 0.0065000000 0.0065000000 0.0065000000 0.0065000000 0.0065000000 0.0065000000 0.0065000000 0.0065000000 0.0065000000 0.0065000000 0.0065000000 0.0065000000 0.0065000000 0.0065000000 0.0065000000 0.0065000000 0.0065000000 0.0065000000 0.0065000000 0.0065000000 0.0065000000 0.0065000000 0.0065000000 0.0065000000 0.0065000000 0.0065000000 0.0065000000 0.0065000000 0.0065000000 0.0065000000 0.0065000000 0.0065000000 0.0065000000 0.0065000000 0.0065000000 0.0065000000 0.0065000000 0.0065000000 0.0065000000 0.0065000000 0.0065000000 0.0065000000 0.0065000000 0.0065000000 0.0065000000 0.0065000000 0.0065000000 0.0065000000 0.0065000000 0.0065000000 0.0065000000 0.0065000000 0.0065000000 0.0065000000 0.0065000000 0.0065000000 0.0065000000 0.0065000000 0.0065000000 0.0065000000 0.0065000000 0.0065000000 0.0065000000 0.0065000000 0.0065000000 0.0065000000 0.0065000000 0.0065000000 0.0065000000 0.0065000000 0.0065000000 0.0065000000 0.0065000000 0.0065000000 0.0065000000 0.0065000000 0.0065000000 0.0065000000 0.0065000000 0.0065000000 0.0065000000 0.0065000000 0.0065000000 0.0065000000 0.0065000000 0.0065000000 0.0065000000 0.0065000000 0.0065000000 0.0065000000 0.0065000000 0.0065000000 0.0065000000 0.0065000000 0.0065000000 0.0065000000 0.0065000000 0.0065000000 0.0065000000 0.0065000000 0.0065000000 0.0065000000 0.0065000000 0.0065000000 0.0065000000 0.0065000000 0.0065000000 0.0065000000 0.0065000000 0.0065000000 0.0065000000 0.0065000000 0.0065000000 0.0065000000 0.0065000000 0.0065000000 0.0065000000 0.0065000000 0.0065000000 0.0065000000 0.0065000000 0.0065000000 0.0065000000 0.0065000000 0.0065000000 0.0065000000 0.0065000000 0.0065000000 0.0065000000 0.0065000000 0.0065000000 0.0065000000 0.0065000000 0.0065000000 0.0065000000 0.0065000000 0.0065000000 0.0065000000 0.0065000000 0.0065000000 0.0065000000 0.0065000000 0.0065000000 0.0065000000 0.0065000000 0.0065000000 0.0065000000 0.0065000000 0.0065000000 0.0065000000 0.0065000000 0.0065000000 0.0065000000 0.0065000000 0.0065000000 0.0065000000 0.0065000000 0.0065000000 0.0065000000 0.0065000000 0.0065000000 0.0065000000 0.0065000000 0.0065000000 0.0065000000 0.0065000000 0.0065000000 0.0065000000 0.0065000000 0.0065000000 0.0065000000 0.0065000000 0.0065000000 0.0065000000 0.0065000000 0.0065000000 0.0065000000 0.0065000000 0.0065000000 0.0065000000 0.0065000000 0.0065000000 0.0065000000 0.0065000000 0.0065000000 0.0065000000 0.0065000000 0.0065000000 0.0065000000 0.0065000000 0.0065000000 0.0065000000 0.0065000000 0.0065000000 0.0065000000 0.0065000000 0.0065000000 0.0065000000 0.0065000000 0.0065000000 0.0065000000 0.0065000000 0.0065000000 0.0065000000 0.0065000000 0.0065000000 0.0065000000 0.0065000000 0.0065000000 0.0065000000 0.0065000000 0.0065000000 0.0065000000 0.0065000000 0.0065000000 0.0065000000 0.0065000000 0.0065000000 0.0065000000 0.0065000000 0.0065000000 0.0065000000 0.0065000000 0.0065000000 0.0065000000 0.0065000000 0.0065000000 0.0065000000 0.0065000000 0.0065000000 0.0065000000 0.0065000000 0.0065000000 0.0065000000 0.0065000000 0.0065000000 0.0065000000 0.0065000000 0.0065000000 0.0065000000 0.0065000000 0.0065000000 0.0065000000 0.0065000000 0.0065000000 0.0065000000 0.0065000000 0.0065000000 0.0065000000 0.0065000000 0.0065000000 0.0065000000 0.0065000000 0.0065000000 0.0065000000 0.0065000000 0.0065000000 0.0065000000 0.0065000000 0.0065000000 0.0065000000 0.0065000000 0.0065000000 0.0065000000 0.0065000000 0.0065000000 0.0065000000 0.0065000000 0.0065000000 0.0065000000 0.0065000000 0.0065000000 0.0065000000 0.0065000000 0.0065000000 0.0065000000 0.0065000000 0.0065000000 0.0065000000 0.0065000000 0.0065000000 0.0065000000 0.0065000000 0.0065000000 0.0065000000 0.0065000000 0.0065000000 0.0065000000 0.0065000000 0.0065000000 0.0065000000 0.0065000000 0.0065000000 0.0065000000 0.0065000000 0.0065000000 0.0065000000 0.0065000000 0.0065000000 0.0065000000 0.0065000000 0.0065000000 0.0065000000 0.0065000000 0.0065000000 0.0065000000 0.0065000000 0.0065000000 0.0065000000 0.0065000000 0.0065000000 0.0065000000 0.0065000000 0.0065000000 0.0065000000 0.0065000000 0.0065000000 0.0065000000 0.0065000000 0.0065000000 0.0065000000 0.0065000000 0.0065000000 0.0065000000 0.0065000000 0.0065000000 0.0065000000 0.0065000000 0.0065000000 0.0065000000 0.0065000000 0.0065000000 0.0065000000 0.0065000000 0.0065000000 0.0065000000 0.0065000000 0.0065000000 0.0065000000 0.0065000000 0.0065000000 0.0065000000 0.0065000000 0.0065000000 0.0065000000 0.0065000000 0.0065000000 0.0065000000 0.0065000000 0.0065000000 0.0065000000 0.0065000000 0.0065000000 0.0065000000 0.0065000000 0.0065000000 0.0065000000 0.0065000000 0.0065000000 0.0065000000 0.0065000000 0.0065000000 0.0065000000 0.0065000000 0.0065000000 0.0065000000 0.0065000000 0.0065000000 0.0065000000 0.0065000000 0.0065000000 0.0065000000 0.0065000000 0.0065000000 0.0065000000 0.0065000000 0.0065000000 0.0065000000 0.0065000000 0.0065000000 0.0065000000 0.0065000000 0.0065000000 0.0065000000 0.0065000000 0.0065000000 0.0065000000 0.0065000000 0.0065000000 0.0065000000 0.0065000000 0.0065000000 0.0065000000 0.0065000000 0.0065000000 0.0065000000 0.0065000000 0.0065000000 0.0065000000 0.0065000000 0.0065000000 0.0065000000 0.0065000000 0.0065000000 0.0065000000 0.0065000000 0.0065000000 0.0065000000 0.0065000000 0.0065000000 0.0065000000 0.0065000000 0.0065000000 0.0065000000 0.0065000000 0.0065000000 0.0065000000 0.0065000000 0.0065000000 0.0065000000 0.0065000000 0.0065000000 0.0065000000 0.0065000000 0.0065000000 0.0065000000 0.0065000000 0.0065000000 0.0065000000 0.0065000000 0.0065000000 0.0065000000 0.0065000000 0.0065000000 0.0065000000 0.0065000000 0.0065000000 0.0065000000 0.0065000000 0.0065000000 0.0065000000 0.0065000000 0.0065000000 0.0065000000 0.0065000000 0.0065000000 0.0065000000 0.0065000000 0.0065000000 0.0065000000 0.0065000000 0.0065000000 0.0065000000 0.0065000000 0.0065000000 0.0065000000 0.0065000000 0.0065000000 0.0065000000 0.0065000000 0.0065000000 0.0065000000 0.0065000000 0.0065000000 0.0065000000 0.0065000000 0.0065000000 0.0065000000 0.0065000000 0.0065000000 0.0065000000 0.0065000000 0.0065000000 0.0065000000 0.0065000000 0.0065000000 0.0065000000 0.0065000000 0.0065000000 0.0065000000 0.0065000000 0.0065000000 0.0065000000 0.0065000000 0.0065000000 0.0065000000 0.0065000000 0.0065000000 0.0065000000 0.0065000000 0.0065000000 0.0065000000 0.0065000000 0.0065000000 0.0065000000 0.0065000000 0.0065000000 0.0065000000 0.0065000000 0.0065000000 0.0065000000 0.0065000000 0.0065000000 0.0065000000 0.0065000000 0.0065000000 0.0065000000 0.0065000000 0.0065000000 0.0065000000 0.0065000000 0.0065000000 0.0065000000 0.0065000000 0.0065000000 0.0065000000 0.0065000000 0.0065000000 0.0065000000 0.0065000000 0.0065000000 0.0065000000 0.0065000000 0.0065000000 0.0065000000 0.0065000000 0.0065000000 0.0065000000 0.0065000000 0.0065000000 0.0065000000 0.0065000000 0.0065000000 0.0065000000 0.0065000000 0.0065000000 0.0065000000 0.0065000000 0.0065000000 0.0065000000 0.0065000000 0.0065000000 0.0065000000 0.0065000000 0.0065000000 0.0065000000 0.0065000000 0.0065000000 0.0065000000 0.0065000000 0.0065000000 0.0065000000 0.0065000000 0.0065000000 0.0065000000 0.0065000000 0.0065000000 0.0065000000 0.0065000000 0.0065000000 0.0065000000 0.006500000