<?xml version="1.0"?>
<VTKFile type="UnstructuredGrid" version="0.1" byte_order="LittleEndian">
  <UnstructuredGrid>
    <FieldData>
      <DataArray type="Float32" Name="TIME"  NumberOfTuples="1" format="ascii"> 1.7487955031 </DataArray>
      <DataArray type="Int32"   Name="STEP"  NumberOfTuples="1" format="ascii"> 23450 </DataArray>
    </FieldData>
    <Piece NumberOfPoints="18081" NumberOfCells="18081">
      <Points>
        <DataArray type="Float32" NumberOfComponents="3" format="ascii">
 0.0909190397 0.0198356131 0.0037450885 0.0954149155 0.0052271314 0.0052074663 0.0706697143 0.0019079946 0.0125650791 0.1840882010 0.0007053986 0.0001865021 0.1523839722 0.0103924982 0.0174358547 0.1151645488 0.0009662855 -0.0002290056 0.2964671908 0.0009392353 -0.0007010236 0.3297504932 0.0166607119 0.0007039227 0.3079585046 0.0144027187 0.0309436540 0.1430455467 0.0000655747 0.0217241376 0.1981188325 0.0177991631 0.0003321544 0.3158663222 0.0493717860 0.0457795565 0.3876805209 0.0212362656 -0.0007120219 0.3102768328 0.0486146302 0.0289651060 0.2807900550 0.0285844738 0.0192331033 0.4149484802 0.0398269161 0.0008922644 0.2641653259 0.0056935689 0.0155938282 0.2561052707 0.0174155604 0.0108298905 0.1186142661 0.0119199062 0.0266056299 0.3277919996 0.0011164337 0.0472072972 0.2928395290 0.0467856663 0.0292808147 0.0676176662 0.0105974671 -0.0001951516 0.0582629305 0.0091882050 -0.0003335160 0.0002607814 0.0302286917 0.0079768594 0.0289875308 0.0106436544 0.0080127361 0.1905529190 0.0025264166 0.0000768094 0.2424516783 0.0208460332 0.0008785634 0.2385702710 0.0182018446 0.0002183463 0.3979994840 0.0006508949 -0.0001603516 0.3022664782 0.0205015093 0.0281552403 0.4604784454 0.0488974761 -0.0001240851 0.3635711505 0.0299350674 -0.0003467209 0.3727234305 0.0375021211 -0.0000485993 0.3525211919 0.0609616839 0.0093415505 0.3352174488 0.0230658603 0.0111784906 0.2636144825 0.0111658944 0.0142513399 0.4042995099 0.0054613902 0.0000818477 0.3020213189 0.0198696658 0.0186283978 0.1160569210 0.0090810822 0.0240257766 0.1427154846 0.0164837092 0.0222117751 0.0494955311 0.0038661842 0.0074067199 0.2900342549 0.0210766154 0.0192507430 0.1333311761 0.0151889011 -0.0003993651 0.1030901891 0.0002293963 0.0003416648 0.0987392010 0.0023103039 -0.0001080047 0.0695173365 0.0119125942 0.0103297406 0.1583566900 -0.0000499454 0.0140237547 0.2516476588 0.0147115478 0.0048758239 0.3221995286 0.0275271010 -0.0006585169 0.1910217186 0.0390206644 0.0213692794 0.1558959326 0.0338347435 0.0217256570 0.2474670765 0.0173360899 0.0019414956 0.4739377868 0.0273685548 0.0009618716 0.3367892606 0.0457384833 0.0100945933 0.3569000266 0.0490636035 0.0026133452 0.3032147222 0.0284055719 0.0201172265 0.3405564100 0.0369893253 0.0074201542 0.1983459927 -0.0001520692 0.0149713448 0.2879013352 0.0096419756 0.0258222405 0.2972433188 0.0125509921 0.0264178017 0.3211434999 0.0034773774 0.0191917769 0.2848689388 0.0184226712 0.0062985259 0.3090003311 0.0476716587 0.0422229971 0.0750012756 0.0137919698 0.0013387587 0.1232207593 0.0118094345 -0.0002503995 0.0839912246 0.0097018912 0.0231271047 0.1393851645 0.0098168009 0.0204668297 0.2041680356 0.0081377878 0.0120496076 0.2714544331 0.0008294348 -0.0004772017 0.3168971480 0.0120089729 0.0005649388 0.2250752544 0.0195100800 0.0099151284 0.4745739909 0.0032421488 0.0002530845 0.4749027536 0.0338936934 0.0089444946 0.3909690633 0.0551161423 0.0023170439 0.3084471753 0.0487916876 0.0150630250 0.3735992394 0.0425710906 0.0071235954 0.3258694172 0.0331988786 0.0143914637 0.2412548669 0.0236302731 0.0223645641 0.4892683756 0.0489448028 0.0055099762 0.0710248104 0.0146405382 0.0142295686 0.1609512733 0.0278432742 0.0174443110 0.0567750526 0.0119945244 0.0199645281 0.3143535454 0.0520554234 0.0304598934 0.2692473136 0.0129243829 0.0060620917 0.0980718603 0.0201832181 0.0053956699 0.1224341683 0.0014256244 0.0050335704 0.1661915297 0.0001553843 0.0093389890 0.1225187020 0.0028035499 -0.0002061296 0.0853223398 0.0097396273 -0.0004104245 0.2092217170 0.0351760163 0.0133348001 0.2497838803 0.0342103120 0.0054153781 0.2963895952 0.0275199266 0.0268281263 0.1849952955 0.0398556083 0.0217211534 0.4276743975 0.0142089152 -0.0002347480 0.4974492806 0.0545988480 0.0059425205 0.3131021719 0.0449200408 0.0078359870 0.3411663623 0.0432600423 0.0030458268 0.3180189064 0.0613705455 0.0174845183 0.2766944436 0.0340966074 0.0192461067 0.1114785284 0.0261919188 0.0279027069 0.2464399569 0.0183011399 0.0123078564 0.2215913753 0.0391640466 0.0245178955 0.3232708934 0.0016772179 0.0528229612 0.3409751384 0.0187324640 0.0475735907 0.3158453543 0.0498312456 0.0220061806 0.0813639092 0.0230134549 -0.0004532706 0.1052578657 0.0223937504 0.0071625353 0.1359807739 0.0013627440 0.0153081230 0.0774059347 0.0045630946 0.0128216959 0.1445867972 0.0006962195 0.0039773260 0.2041906735 0.0245740601 -0.0007787282 0.3191270134 0.0078431309 -0.0002923660 0.4392210045 0.0005608329 -0.0002876398 0.2132056912 0.0403936025 0.0130476285 0.2477418373 0.0140069924 0.0095815616 0.3041538011 0.0387260767 0.0125390286 0.3074887425 0.0515846264 0.0067119767 0.2821257658 0.0655959744 0.0260412487 0.4762339164 0.0511265367 0.0043873630 0.3829475923 0.0244103889 0.0006193286 0.1373293994 0.0259676517 0.0235597303 0.1915616756 0.0293995733 -0.0007535503 0.0152484354 0.0008873571 0.0083090456 0.0694589437 0.0290755234 0.0198621761 0.2996595654 0.0337914191 0.0183271112 0.2752311299 0.0257659802 0.0069136993 0.1616772318 0.0213196054 0.0030429347 0.1223064877 0.0122046790 0.0095370923 0.1095682257 0.0010159654 -0.0004106639 0.0318342279 0.0149846050 0.0057295511 0.1242361683 0.0269943250 0.0172012949 0.2122316700 0.0032191105 0.0000694623 0.4153346938 0.0174677571 -0.0003828853 0.2072808491 0.0410267536 0.0095457796 0.2130443493 0.0146313693 0.0000048384 0.4748223004 0.0430192354 -0.0001823731 0.3576530105 0.0141602970 0.0025589948 0.3787873716 0.0581317257 0.0003445103 0.3066782623 0.0504351089 0.0206284097 0.3434664599 0.0573299740 0.0090655112 0.2356019955 0.0366174705 0.0221386192 0.2391048420 0.0393025911 0.0235688272 0.1131022185 0.0196191556 0.0193098742 0.1784176797 0.0404222252 0.0225326783 0.0103088612 0.0089396541 0.0203229969 0.3202808356 0.0662013814 0.0175016332 0.2270045076 0.0428477582 0.0257895356 0.1393074666 0.0113432745 -0.0002490524 0.0332042351 0.0113091387 0.0153696177 0.1148902311 0.0391426838 0.0173275553 0.1003739693 0.0011782178 0.0075026691 0.1205752700 0.0168623328 0.0001514611 0.1817569429 0.0481992913 0.0082782427 0.3536282853 0.0225542005 -0.0005218185 0.2114195705 0.0341293871 -0.0001478154 0.2177126483 0.0252769312 0.0059091702 0.2130535926 0.0449939372 0.0152903492 0.3141551106 0.0612359186 0.0387127536 0.3483602363 0.0501818182 0.0027557412 0.3097235917 0.0604181067 0.0062897564 0.2277557177 0.0294843434 0.0067923661 0.3173634610 0.0709417672 0.0170250199 0.2320159065 0.0416199570 0.0178780579 0.0266489009 0.0150792262 0.0106455209 0.0060889336 0.0267749411 0.0137968927 0.3588133906 0.0605992390 0.0101855663 0.1185039325 0.0448148564 0.0297764535 0.3014055576 0.0503862817 0.0300964659 0.1456584944 0.0089837435 -0.0005439620 0.1198038261 0.0559917718 0.0221937212 0.0801599193 0.0001631206 0.0077158185 0.0867359985 0.0013861391 0.0112903755 0.0651923616 0.0187958502 0.0127952627 0.2283662837 0.0277903969 0.0002620180 0.3185470252 0.0189861493 0.0001800731 0.2271192379 0.0225574213 -0.0005307034 0.2784714792 0.0298068951 0.0161884464 0.2097978170 0.0456882244 0.0183884463 0.2682014589 0.0416612190 0.0045053235 0.4589568782 0.0571110741 0.0072377035 0.3080268108 0.0734091256 0.0436963920 0.3526801704 0.0675914851 0.0073169821 0.1947067692 0.0559635415 0.0054581101 0.1937916088 0.0455536034 -0.0004880097 0.2874228208 0.0460745995 0.0293267924 0.2636672636 0.0384471251 0.0256011326 0.2668039145 0.0402511223 0.0243886853 0.2857571671 0.0719081613 0.0198884186 0.1310452018 0.0115579672 0.0258804940 0.1575345571 0.0257784266 -0.0000442342 0.1566697180 0.0178253962 0.0047756304 0.1305965311 0.0128542074 0.0098441832 0.1005496976 0.0182640564 0.0098049446 0.0395986209 0.0092411335 0.0094520620 0.2400187118 0.0437827088 0.0074375898 0.3545375050 0.0316113318 -0.0002181700 0.3390713114 0.0251982934 0.0000805344 0.3775967373 0.0155787521 -0.0001584310 0.2432913171 0.0254172879 0.0058154390 0.3973280498 0.0461716018 0.0017442805 0.3161725547 0.0722276843 0.0056746755 0.4551664571 0.0630413899 0.0070670245 0.3852927286 0.0595589722 0.0029584662 0.2821436170 0.0603001804 0.0227381286 0.3116785540 0.0359266488 0.0459969741 0.2411543363 0.0771518762 0.0273747541 0.2908520497 0.0553394709 0.0283767424 0.2329989771 0.0589792920 0.0252670437 0.0782297045 0.0555533620 0.0245200860 0.3105381165 0.0617972813 0.0408049522 0.1503084372 0.0731748475 0.0025675838 0.1477157860 0.0817439832 0.0129917212 0.1499442656 0.0892965986 0.0035953432 0.1244262339 0.0209758162 0.0170832139 0.0856349111 0.0511642890 0.0190778628 0.2339820785 0.0498028944 0.0061671525 0.2521962005 0.0411492796 0.0058397309 0.1898230122 0.0585125101 0.0065958130 0.1324581792 0.0393748147 0.0212486687 0.4064987574 0.0299528320 0.0007075002 0.3144036756 0.0689908945 0.0113443897 0.3224890414 0.0696845839 0.0132735974 0.3698526668 0.0703272477 0.0035761366 0.3019438858 0.0792329940 0.0177549563 0.1871562776 0.0496282630 0.0079433142 0.4494003870 0.0622745975 0.0068647819 0.2819754666 0.0508640325 0.0286881200 0.0881730964 0.0441254723 0.0298113124 0.1581141382 0.0421363967 0.0219734195 0.0538387491 0.0742794050 0.0122743583 0.2537375026 0.0784743794 0.0286446463 0.1353613785 0.0518699240 0.0121517588 0.1415335190 0.0635981393 0.0096945997 0.1157425848 0.0826597111 0.0101170786 0.1172761762 0.0087945790 0.0070790665 0.1329323919 0.0364260877 0.0133586494 0.2310619836 0.0470952873 0.0005575323 0.2674453382 0.0497890740 0.0008558285 0.2031982205 0.0411368298 -0.0002561087 0.1225399571 0.0257348851 0.0134318639 0.2861489516 0.0556397374 0.0014405657 0.2945991822 0.0753274551 0.0086384662 0.4759023103 0.080778359
[...]
      <PointData Scalars="smoothLength">
        <DataArray type="Float32" Name="smoothLength" format="ascii">
 0.0065000000 0.0065000000 0.0065000000 0.0065000000 0.0065000000 0.0065000000 0.0065000000 0.0065000000 0.0065000000 0.0065000000 0.0065000000 0.0065000000 0.0065000000 0.0065000000 0.0065000000 0.0065000000 0.0065000000 0.0065000000 0.0065000000 0.0065000000 0.0065000000 0.0065000000 0.0065000000 0.0065000000 0.0065000000 0.0065000000 0.0065000000 0.0065000000 0.0065000000 0.0065000000 0.0065000000 0.0065000000 0.0065000000 0.0065000000 0.0065000000 0.0065000000 0.0065000000 0.0065000000 0.0065000000 0.0065000000 0.0065000000 0.0065000000 0.0065000000 0.0065000000 0.0065000000 0.0065000000 0.0065000000 0.0065000000 0.0065000000 0.0065000000 0.0065000000 0.0065000000 0.0065000000 0.0065000000 0.0065000000 0.0065000000 0.0065000000 0.0065000000 0.0065000000 0.0065000000 0.0065000000 0.0065000000 0.0065000000 0.0065000000 0.0065000000 0.0065000000 0.0065000000 0.0065000000 0.0065000000 0.0065000000 0.0065000000 0.0065000000 0.0065000000 0.0065000000 0.0065000000 0.0065000000 0.0065000000 0.0065000000 0.0065000000 0.0065000000 0.0065000000 0.0065000000 0.0065000000 0.0065000000 0.0065000000 0.0065000000 0.0065000000 0.0065000000 0.0065000000 0.0065000000 0.0065000000 0.0065000000 0.0065000000 0.0065000000 0.0065000000 0.0065000000 0.0065000000 0.0065000000 0.0065000000 0.0065000000 0.0065000000 0.0065000000 0.0065000000 0.0065000000 0.0065000000 0.0065000000 0.0065000000 0.0065000000 0.0065000000 0.0065000000 0.0065000000 0.0065000000 0.0065000000 0.0065000000 0.0065000000 0.0065000000 0.0065000000 0.0065000000 0.0065000000 0.0065000000 0.0065000000 0.0065000000 0.0065000000 0.0065000000 0.0065000000 0.0065000000 0.0065000000 0.0065000000 0.0065000000 0.0065000000 0.0065000000 0.0065000000 0.0065000000 0.0065000000 0.0065000000 0.0065000000 0.0065000000 0.0065000000 0.0065000000 0.0065000000 0.0065000000 0.0065000000 0.0065000000 0.0065000000 0.0065000000 0.0065000000 0.0065000000 0.0065000000 0.0065000000 0.0065000000 0.0065000000 0.0065000000 0.0065000000 0.0065000000 0.0065000000 0.0065000000 0.0065000000 0.0065000000 0.0065000000 0.0065000000 0.0065000000 0.0065000000 0.0065000000 0.0065000000 0.0065000000 0.0065000000 0.0065000000 0.0065000000 0.0065000000 0.0065000000 0.0065000000 0.0065000000 0.0065000000 0.0065000000 0.0065000000 0.0065000000 0.0065000000 0.0065000000 0.0065000000 0.0065000000 0.0065000000 0.0065000000 0.0065000000 0.0065000000 0.0065000000 0.0065000000 0.0065000000 0.0065000000 0.0065000000 0.0065000000 0.0065000000 0.0065000000 0.0065000000 0.0065000000 0.0065000000 0.0065000000 0.0065000000 0.0065000000 0.0065000000 0.0065000000 0.0065000000 0.0065000000 0.0065000000 0.0065000000 0.0065000000 0.0065000000 0.0065000000 0.0065000000 0.0065000000 0.0065000000 0.0065000000 0.0065000000 0.0065000000 0.0065000000 0.0065000000 0.0065000000 0.0065000000 0.0065000000 0.0065000000 0.0065000000 0.0065000000 0.0065000000 0.0065000000 0.0065000000 0.0065000000 0.0065000000 0.0065000000 0.0065000000 0.0065000000 0.0065000000 0.0065000000 0.0065000000 0.0065000000 0.0065000000 0.0065000000 0.0065000000 0.0065000000 0.0065000000 0.0065000000 0.0065000000 0.0065000000 0.0065000000 0.0065000000 0.0065000000 0.0065000000 0.0065000000 0.0065000000 0.0065000000 0.0065000000 0.0065000000 0.0065000000 0.0065000000 0.0065000000 0.0065000000 0.0065000000 0.0065000000 0.0065000000 0.0065000000 0.0065000000 0.0065000000 0.0065000000 0.0065000000 0.0065000000 0.0065000000 0.0065000000 0.0065000000 0.0065000000 0.0065000000 0.0065000000 0.0065000000 0.0065000000 0.0065000000 0.0065000000 0.0065000000 0.0065000000 0.0065000000 0.0065000000 0.0065000000 0.0065000000 0.0065000000 0.0065000000 0.0065000000 0.0065000000 0.0065000000 0.0065000000 0.0065000000 0.0065000000 0.0065000000 0.0065000000 0.0065000000 0.0065000000 0.0065000000 0.0065000000 0.0065000000 0.0065000000 0.0065000000 0.0065000000 0.0065000000 0.0065000000 0.0065000000 0.0065000000 0.0065000000 0.0065000000 0.0065000000 0.0065000000 0.0065000000 0.0065000000 0.0065000000 0.0065000000 0.0065000000 0.0065000000 0.0065000000 0.0065000000 0.0065000000 0.0065000000 0.0065000000 0.0065000000 0.0065000000 0.0065000000 0.0065000000 0.0065000000 0.0065000000 0.0065000000 0.0065000000 0.0065000000 0.0065000000 0.0065000000 0.0065000000 0.0065000000 0.0065000000 0.0065000000 0.0065000000 0.0065000000 0.0065000000 0.0065000000 0.0065000000 0.0065000000 0.0065000000 0.0065000000 0.0065000000 0.0065000000 0.0065000000 0.0065000000 0.0065000000 0.0065000000 0.0065000000 0.0065000000 0.0065000000 0.0065000000 0.0065000000 0.0065000000 0.0065000000 0.0065000000 0.0065000000 0.0065000000 0.0065000000 0.0065000000 0.0065000000 0.0065000000 0.0065000000 0.0065000000 0.0065000000 0.0065000000 0.0065000000 0.0065000000 0.0065000000 0.0065000000 0.0065000000 0.0065000000 0.0065000000 0.0065000000 0.0065000000 0.0065000000 0.0065000000 0.0065000000 0.0065000000 0.0065000000 0.0065000000 0.0065000000 0.0065000000 0.0065000000 0.0065000000 0.0065000000 0.0065000000 0.0065000000 0.0065000000 0.0065000000 0.0065000000 0.0065000000 0.0065000000 0.0065000000 0.0065000000 0.0065000000 0.0065000000 0.0065000000 0.0065000000 0.0065000000 0.0065000000 0.0065000000 0.0065000000 0.0065000000 0.0065000000 0.0065000000 0.0065000000 0.0065000000 0.0065000000 0.0065000000 0.0065000000 0.0065000000 0.0065000000 0.0065000000 0.0065000000 0.0065000000 0.0065000000 0.0065000000 0.0065000000 0.0065000000 0.0065000000 0.0065000000 0.0065000000 0.0065000000 0.0065000000 0.0065000000 0.0065000000 0.0065000000 0.0065000000 0.0065000000 0.0065000000 0.0065000000 0.0065000000 0.0065000000 0.0065000000 0.0065000000 0.0065000000 0.0065000000 0.0065000000 0.0065000000 0.0065000000 0.0065000000 0.0065000000 0.0065000000 0.0065000000 0.0065000000 0.0065000000 0.0065000000 0.0065000000 0.0065000000 0.0065000000 0.0065000000 0.0065000000 0.0065000000 0.0065000000 0.0065000000 0.0065000000 0.0065000000 0.0065000000 0.0065000000 0.0065000000 0.0065000000 0.0065000000 0.0065000000 0.0065000000 0.0065000000 0.0065000000 0.0065000000 0.0065000000 0.0065000000 0.0065000000 0.0065000000 0.0065000000 0.0065000000 0.0065000000 0.0065000000 0.0065000000 0.0065000000 0.0065000000 0.0065000000 0.0065000000 0.0065000000 0.0065000000 0.0065000000 0.0065000000 0.0065000000 0.0065000000 0.0065000000 0.0065000000 0.0065000000 0.0065000000 0.0065000000 0.0065000000 0.0065000000 0.0065000000 0.0065000000 0.0065000000 0.0065000000 0.0065000000 0.0065000000 0.0065000000 0.0065000000 0.0065000000 0.0065000000 0.0065000000 0.0065000000 0.0065000000 0.0065000000 0.0065000000 0.0065000000 0.0065000000 0.0065000000 0.0065000000 0.0065000000 0.0065000000 0.0065000000 0.0065000000 0.0065000000 0.0065000000 0.0065000000 0.0065000000 0.0065000000 0.0065000000 0.0065000000 0.0065000000 0.0065000000 0.0065000000 0.0065000000 0.0065000000 0.0065000000 0.0065000000 0.0065000000 0.0065000000 0.0065000000 0.0065000000 0.0065000000 0.0065000000 0.0065000000 0.0065000000 0.0065000000 0.0065000000 0.0065000000 0.0065000000 0.0065000000 0.0065000000 0.0065000000 0.0065000000 0.0065000000 0.0065000000 0.0065000000 0.0065000000 0.0065000000 0.0065000000 0.0065000000 0.0065000000 0.0065000000 0.0065000000 0.0065000000 0.0065000000 0.0065000000 0.0065000000 0.0065000000 0.0065000000 0.0065000000 0.0065000000 0.0065000000 0.0065000000 0.0065000000 0.0065000000 0.0065000000 0.0065000000 0.0065000000 0.0065000000 0.0065000000 0.0065000000 0.0065000000 0.0065000000 0.0065000000 0.0065000000 0.0065000000 0.0065000000 0.0065000000 0.0065000000 0.0065000000 0.0065000000 0.0065000000 0.0065000000 0.0065000000 0.0065000000 0.0065000000 0.0065000000 0.0065000000 0.0065000000 0.0065000000 0.0065000000 0.0065000000 0.0065000000 0.0065000000 0.0065000000 0.0065000000 0.0065000000 0.0065000000 0.0065000000 0.0065000000 0.0065000000 0.0065000000 0.0065000000 0.0065000000 0.0065000000 0.0065000000 0.0065000000 0.0065000000 0.0065000000 0.0065000000 0.0065000000 0.0065000000 0.0065000000 0.0065000000 0.0065000000 0.0065000000 0.0065000000 0.0065000000 0.0065000000 0.0065000000 0.0065000000 0.0065000000 0.0065000000 0.0065000000 0.0065000000 0.0065000000 0.0065000000 0.0065000000 0.0065000000 0.0065000000 0.0065000000 0.0065000000 0.0065000000 0.0065000000 0.0065000000 0.0065000000 0.0065000000 0.0065000000 0.0065000000 0.0065000000 0.0065000000 0.0065000000 0.0065000000 0.0065000000 0.0065000000 0.0065000000 0.0065000000 0.0065000000 0.0065000000 0.0065000000 0.0065000000 0.0065000000 0.0065000000 0.0065000000 0.0065000000 0.0065000000 0.0065000000 0.0065000000 0.0065000000 0.0065000000 0.0065000000 0.0065000000 0.0065000000 0.0065000000 0.0065000000 0.0065000000 0.0065000000 0.0065000000 0.0065000000 0.0065000000 0.0065000000 0.0065000000 0.0065000000 0.0065000000 0.0065000000 0.0065000000 0.0065000000 0.0065000000 0.0065000000 0.0065000000 0.0065000000 0.0065000000 0.0065000000 0.0065000000 0.0065000000 0.0065000000 0.0065000000 0.0065000000 0.0065000000 0.0065000000 0.0065000000 0.0065000000 0.0065000000 0.0065000000 0.0065000000 0.0065000000 0.0065000000 0.0065000000 0.0065000000 0.0065000000 0.0065000000 0.0065000000 0.0065000000 0.0065000000 0.0065000000 0.0065000000 0.0065000000 0.0065000000 0.0065000000 0.0065000000 0.0065000000 0.0065000000 0.0065000000 0.0065000000 0.0065000000 0.0065000000 0.0065000000 0.0065000000 0.0065000000 0.0065000000 0.0065000000 0.0065000000 0.0065000000 0.0065000000 0.0065000000 0.0065000000 0.0065000000 0.0065000000 0.0065000000 0.0065000000 0.0065000000 0.0065000000 0.0065000000 0.0065000000 0.0065000000 0.0065000000 0.0065000000 0.0065000000 0.0065000000 0.0065000000 0.0065000000 0.0065000000 0.0065000000 0.0065000000 0.0065000000 0.0065000000 0.0065000000 0.0065000000 0.0065000000 0.0065000000 0.0065000000 0.0065000000 0.0065000000 0.0065000000 0.0065000000 0.0065000000 0.0065000000 0.0065000000 0.0065000000 0.0065000000 0.0065000000 0.0065000000 0.0065000000 0.0065000000 0.0065000000 0.0065000000 0.0065000000 0.0065000000 0.0065000000 0.0065000000 0.0065000000 0.0065000000 0.0065000000 0.0065000000 0.0065000000 0.0065000000 0.0065000000 0.0065000000 0.0065000000 0.0065000000 0.0065000000 0.0065000000 0.0065000000 0.0065000000 0.0065000000 0.0065000000 0.0065000000 0.0065000000 0.0065000000 0.0065000000 0.0065000000 0.0065000000 0.0065000000 0.0065000000 0.0065000000 0.0065000000 0.0065000000 0.0065000000 0.0065000000 0.0065000000 0.0065000000 0.0065000000 0.0065000000 0.0065000000 0.0065000000 0.0065000000 0.0065000000 0.0065000000 0.0065000000 0.0065000000 0.0065000000 0.0065000000 0.0065000000 0.0065000000 0.0065000000 0.0065000000 0.0065000000 0.0065000000 0.0065000000 0.0065000000 0.0065000000 0.0065000000 0.0065000000 0.0065000000 0.0065000000 0.0065000000 0.0065000000 0.0065000000 0.0065000000 0.0065000000 0.0065000000 0.0065000000 0.0065000000 0.0065000000 0.0065000000 0.0065000000 0.0065000000 0.0065000000 0.0065000000 0.0065000000 0.0065000000 0.0065000000 0.0065000000 0.0065000000 0.0065000000 0.0065000000 0.0065000000 0.0065000000 0.0065000000 0.0065000000 0.0065000000 0.0065000000 0.0065000000 0.0065000000 0.0065000000 0.0065000000 0.0065000000 0.0065000000 0.0065000000 0.0065000000 0.0065000000 0.0065000000 0.0065000000 0.0065000000 0.0065000000 0.0065000000 0.0065000000 0.0065000000 0.0065000000 0.0065000000 0.0065000000 0.0065000000 0.0065000000 0.0065000000 0.0065000000 0.0065000000 0.0065000000 0.0065000000 0.0065000000 0.0065000000 0.0065000000 0.0065000000 0.0065000000 0.0065000000 0.0065000000 0.0065000000 0.0065000000 0.0065000000 0.0065000000 0.0065000000 0.0065000000 0.0065000000 0.0065000000 0.0065000000 0.0065000000 0.0065000000 0.0065000000 0.0065000000 0.0065000000 0.0065000000 0.0065000000 0.0065000000 0.0065000000 0.0065000000 0.0065000000 0.0065000000 0.0065000000 0.0065000000 0.0065000000 0.0065000000 0.0065000000 0.0065000000 0.0065000000 0.0065000000 0.0065000000 0.0065000000 0.0065000000 0.0065000000 0.0065000000 0.0065000000 0.0065000000 0.0065000000 0.0065000000 0.0065000000 0.0065000000 0.0065000000 0.0065000000 0.0065000000 0.0065000000 0.0065000000 0.0065000000 0.0065000000 0.0065000000 0.0065000000 0.0065000000 0.0065000000 0.0065000000 0.0065000000 0.0065000000 0.0065000000 0.0065000000 0.0065000000 0.0065000000 0.0065000000 0.0065000000 0.0065000000 0.0065000000 0.0065000000 0.0065000000 0.0065000000 0.0065000000 0.0065000000 0.0065000000 0.0065000000 0.0065000000 0.0065000000 0.0065000000 0.0065000000 0.0065000000 0.0065000000 0.0065000000 0.0065000000 0.0065000000 0.0065000000 0.0065000000 0.0065000000 0.0065000000 0.0065000000 0.0065000000 0.0065000000 0.0065000000 0.0065000000 0.0065000000 0.0065000000 0.0065000000 0.0065000000 0.0065000000 0.0065000000 0.0065000000 0.0065000000 0.0065000000 0.0065000000 0.0065000000 0.0065000000 0.0065000000 0.0065000000 0.0065000000 0.0065000000 0.0065000000 0.0065000000 0.0065000000 0.0065000000 0.0065000000 0.0065000000 0.0065000000 0.0065000000 0.0065000000 0.0065000000 0.0065000000 0.0065000000 0.0065000000 0.0065000000 0.0065000000 0.0065000000 0.0065000000 0.0065000000 0.0065000000 0.0065000000 0.0065000000 0.0065000000 0.0065000000 0.0065000000 0.0065000000 0.0065000000 0.0065000000 0.0065000000 0.0065000000 0.0065000000 0.0065000000 0.0065000000 0.0065000000 0.0065000000 0.0065000000 0.0065000000 0.0065000000 0.0065000000 0.0065000000 0.0065000000 0.0065000000 0.0065000000 0.0065000000 0.0065000000 0.0065000000 0.0065000000 0.0065000000 0.0065000000 0.0065000000 0.0065000000 0.0065000000 0.0065000000 0.0065000000 0.0065000000 0.0065000000 0.0065000000 0.0065000000 0.0065000000 0.0065000000 0.0065000000 0.0065000000 0.0065000000 0.0065000000 0.0065000000 0.0065000000 0.0065000000 0.0065000000 0.0065000000 0.0065000000 0.0065000000 0.0065000000 0.0065000000 0.0065000000 0.0065000000 0.0065000000 0.0065000000 0.0065000000 0.0065000000 0.0065000000 0.0065000000 0.0065000000 0.0065000000 0.0065000000 0.0065000000 0.0065000000 0.0065000000 0.0065000000 0.0065000000 0.0065000000 0.0065000000 0.0065000000 0.0065000000 0.0065000000 0.0065000000 0.0065000000 0.0065000000 0.0065000000 0.0065000000 0.0065000000 0.0065000000 0.0065000000 0.0065000000 0.0065000000 0.0065000000 0.0065000000 0.0065000000 0.0065000000 0.0065000000 0.0065000000 0.0065000000 0.0065000000 0.0065000000 0.0065000000 0.0065000000 0.0065000000 0.0065000000 0.0065000000 0.0065000000 0.0065000000 0.0065000000 0.0065000000 0.0065000000 0.0065000000 0.0065000000 0.0065000000 0.0065000000 0.0065000000 0.0065000000 0.0065000000 0.0065000000 0.0065000000 0.0065000000 0.0065000000 0.0065000000 0.0065000000 0.0065000000 0.0065000000 0.0065000000 0.0065000000 0.0065000000 0.0065000000 0.0065000000 0.0065000000 0.0065000000 0.0065000000 0.0065000000 0.0065000000 0.0065000000 0.0065000000 0.0065000000 0.0065000000 0.0065000000 0.0065000000 0.0065000000 0.0065000000 0.0065000000 0.0065000000 0.0065000000 0.0065000000 0.0065000000 0.0065000000 0.0065000000 0.0065000000 0.0065000000 0.0065000000 0.0065000000 0.0065000000 0.0065000000 0.0065000000 0.0065000000 0.0065000000 0.0065000000 0.0065000000 0.0065000000 0.0065000000 0.0065000000 0.0065000000 0.0065000000 0.0065000000 0.0065000000 0.0065000000 0.0065000000 0.0065000000 0.0065000000 0.0065000000 0.0065000000 0.0065000000 0.0065000000 0.0065000000 0.0065000000 0.0065000000 0.0065000000 0.0065000000 0.0065000000 0.0065000000 0.0065000000 0.0065000000 0.0065000000 0.0065000000 0.0065000000 0.0065000000 0.0065000000 0.0065000000 0.0065000000 0.0065000000 0.0065000000 0.0065000000 0.0065000000 0.0065000000 0.0065000000 0.0065000000 0.0065000000 0.0065000000 0.0065000000 0.0065000000 0.0065000000 0.0065000000 0.0065000000 0.0065000000 0.0065000000 0.0065000000 0.0065000000 0.0065000000 0.0065000000 0.0065000000 0.0065000000 0.0065000000 0.0065000000 0.0065000000 0.0065000000 0.0065000000 0.0065000000 0.0065000000 0.0065000000 0.0065000000 0.0065000000 0.0065000000 0.0065000000 0.0065000000 0.0065000000 0.0065000000 0.0065000000 0.0065000000 0.0065000000 0.0065000000 0.0065000000 0.0065000000 0.0065000000 0.0065000000 0.0065000000 0.0065000000 0.0065000000 0.0065000000 0.0065000000 0.0065000000 0.0065000000 0.0065000000 0.0065000000 0.0065000000 0.0065000000 0.0065000000 0.0065000000 0.0065000000 0.0065000000 0.0065000000 0.0065000000 0.0065000000 0.0065000000 0.0065000000 0.0065000000 0.0065000000 0.0065000000 0.0065000000 0.0065000000 0.0065000000 0.0065000000 0.0065000000 0.0065000000 0.0065000000 0.0065000000 0.0065000000 0.0065000000 0.0065000000 0.0065000000 0.0065000000 0.0065000000 0.0065000000 0.0065000000 0.0065000000 0.0065000000 0.0065000000 0.0065000000 0.0065000000 0.0065000000 0.0065000000 0.0065000000 0.0065000000 0.0065000000 0.0065000000 0.0065000000 0.0065000000 0.0065000000 0.0065000000 0.0065000000 0.0065000000 0.0065000000 0.0065000000 0.0065000000 0.0065000000 0.0065000000 0.0065000000 0.0065000000 0.0065000000 0.0065000000 0.0065000000 0.0065000000 0.0065000000 0.0065000000 0.0065000000 0.0065000000 0.0065000000 0.0065000000 0.0065000000 0.0065000000 0.0065000000 0.0065000000 0.0065000000 0.0065000000 0.0065000000 0.0065000000 0.0065000000 0.0065000000 0.0065000000 0.0065000000 0.0065000000 0.0065000000 0.0065000000 0.0065000000 0.0065000000 0.0065000000 0.0065000000 0.0065000000 0.0065000000 0.0065000000 0.0065000000 0.0065000000 0.0065000000 0.0065000000 0.0065000000 0.0065000000 0.0065000000 0.0065000000 0.0065000000 0.0065000000 0.0065000000 0.0065000000 0.0065000000 0.0065000000 0.0065000000 0.0065000000 0.0065000000 0.0065000000 0.0065000000 0.0065000000 0.0065000000 0.0065000000 0.0065000000 0.0065000000 0.0065000000 0.0065000000 0.0065000000 0.0065000000 0.0065000000 0.0065000000 0.0065000000 0.0065000000 0.0065000000 0.0065000000 0.0065000000 0.0065000000 0.0065000000 0.0065000000 0.0065000000 0.0065000000 0.0065000000 0.0065000000 0.0065000000 0.0065000000 0.0065000000 0.0065000000 0.0065000000 0.0065000000 0.0065000000 0.0065000000 0.0065000000 0.0065000000 0.0065000000 0.0065000000 0.0065000000 0.0065000000 0.0065000000 0.0065000000 0.0065000000 0.0065000000 0.0065000000 0.0065000000 0.0065000000 0.0065000000 0.0065000000 0.0065000000 0.0065000000 0.0065000000 0.0065000000 0.0065000000 0.0065000000 0.0065000000 0.0065000000 0.0065000000 0.0065000000 0.0065000000 0.0065000000 0.0065000000 0.0065000000 0.0065000000 0.0065000000 0.0065000000 0.0065000000 0.0065000000 0.0065000000 0.0065000000 0.0065000000 0.0065000000 0.0065000000 0.0065000000 0.0065000000 0.0065000000 0.0065000000 0.0065000000 0.0065000000 0.0065000000 0.0065000000 0.0065000000 0.0065000000 0.0065000000 0.0065000000 0.0065000000 0.0065000000 0.0065000000 0.0065000000 0.0065000000 0.0065000000 0.0065000000 0.0065000000 0.0065000000 0.0065000000 0.0065000000 0.0065000000 0.0065000000 0.0065000000 0.0065000000 0.0065000000 0.0065000000 0.0065000000 0.0065000000 0.0065000000 0.0065000000 0.0065000000 0.0065000000 0.0065000000 0.0065000000 0.0065000000 0.0065000000 0.0065000000 0.0065000000 0.0065000000 0.0065000000 0.0065000000 0.0065000000 0.0065000000 0.0065000000 0.0065000000 0.0065000000 0.0065000000 0.0065000000 0.0065000000 0.0065000000 0.0065000000 0.0065000000 0.0065000000 0.0065000000 0.0065000000 0.0065000000 0.0065000000 0.0065000000 0.0065000000 0.0065000000 0.0065000000 0.0065000000 0.0065000000 0.0065000000 0.0065000000 0.0065000000 0.0065000000 0.0065000000 0.0065000000 0.0065000000 0.0065000000 0.0065000000 0.0065000000 0.0065000000 0.0065000000 0.0065000000 0.0065000000 0.0065000000 0.0065000000 0.0065000000 0.0065000000 0.0065000000 0.0065000000 0.0065000000 0.0065000000 0.0065000000 0.0065000000 0.0065000000 0.0065000000 0.0065000000 0.0065000000 0.0065000000 0.0065000000 0.0065000000 0.0065000000 0.0065000000 0.0065000000 0.0065000000 0.0065000000 0.0065000000 0.0065000000 0.0065000000 0.0065000000 0.0065000000 0.006500000