<?xml version="1.0"?>
<VTKFile type="UnstructuredGrid" version="0.1" byte_order="LittleEndian">
  <UnstructuredGrid>
    <FieldData>
      <DataArray type="Float32" Name="TIME"  NumberOfTuples="1" format="ascii"> 3.5975221778 </DataArray>
      <DataArray type="Int32"   Name="STEP"  NumberOfTuples="1" format="ascii"> 48240 </DataArray>
    </FieldData>
    <Piece NumberOfPoints="18081" NumberOfCells="18081">
      <Points>
        <DataArray type="Float32" NumberOfComponents="3" format="ascii">
 0.0863187950 0.0868328498 0.0143834214 0.0234328583 0.0953089600 0.0063954363 0.0887614777 0.0423692476 0.0089273744 0.0249518200 0.0058140011 0.0121353859 0.0565256005 0.0252851337 0.0119755290 0.0013496164 0.0140108827 0.0193952438 0.4740885306 0.0129320167 0.0088071663 0.3965530841 0.0416099226 0.0051368817 0.4989941303 0.0085574844 0.0046065152 0.4044508195 0.0319734023 0.0094609157 0.4219691044 0.0166810628 0.0158354578 0.4966863650 0.0474653380 0.0095766073 0.4777411656 0.0105094957 0.0184690629 0.3255833598 0.0197471756 0.0167188956 0.4523221739 0.0512407844 0.0176499389 0.3705124053 0.0185244027 0.0227181108 0.4964204536 0.0289810841 0.0156373068 0.2531470758 0.0844013718 0.0244580633 0.3368534908 0.0341770380 0.0222576652 0.1586788788 0.0004294927 0.0195824533 0.4536359127 0.0046100717 0.0225615017 0.0997059502 0.1022960246 0.0006131786 0.0222738418 0.0885173926 0.0194828067 0.0625678753 0.0418773379 0.0091729439 0.0566045103 0.0460981931 0.0007185685 0.0098820966 0.0397151165 0.0090826370 0.4180848533 0.0014935543 0.0122397038 0.4915353899 0.0070697619 0.0112201212 0.4367761414 0.0282953034 0.0040075085 0.4769703201 0.0230959738 0.0208410273 0.4879002362 0.0221453315 0.0007183189 0.3683731789 0.0701194080 0.0147461920 0.4880331793 0.0266373359 0.0180899951 0.3676247438 0.0652765425 0.0131831368 0.4877276911 0.0303652544 0.0116381040 0.3084163866 0.0264994697 0.0156275606 0.4556941456 0.0217036572 0.0067300719 0.3205716634 0.0329426673 0.0215735164 0.0525903230 0.0585733090 0.0252664085 0.0006940928 0.0525155922 0.0270538074 0.3345885463 0.0247122184 0.0083262951 0.2159911470 0.0982226815 0.0324361433 0.0908933308 0.0087038405 0.0098378119 0.0004122855 0.0971412106 0.0012301042 0.0812572314 0.0644690457 0.0019616397 0.1757473407 0.0692812185 0.0206266148 0.3866224283 0.0109712335 0.0005306330 0.3546759225 0.0377417097 0.0094354626 0.4884005565 0.0281532144 0.0007412807 0.4992521759 0.0747268284 0.0063426829 0.4985263625 0.0774463544 0.0172836849 0.4815327582 0.0076155234 0.0002897791 0.2522071586 0.0523667293 0.0249648159 0.3664134377 0.0715542865 0.0037817701 0.4362306346 0.0472525455 0.0199255747 0.4560927400 0.0508947788 0.0143751161 0.4147894294 0.0341167333 0.0004347161 0.4327857618 0.0626756952 0.0010803314 0.3775141766 0.0149746956 0.0173073358 0.0411302438 0.0812789164 0.0139864875 0.3541975188 0.0558435813 0.0225184648 0.4869025942 0.0649920248 0.0145864634 0.3572362072 0.0444638260 0.0132602650 0.0729873769 0.0511491175 0.0005258343 0.0396123772 0.0081253506 0.0077767735 0.0905455107 0.0643531358 0.0097664050 0.0586573761 0.0335891205 0.0085496470 0.3893280942 0.0173086775 0.0046053914 0.4435806963 0.0170310168 0.0010390927 0.4622111759 0.0126678454 0.0007517402 0.2833166635 0.0224322495 0.0170693911 0.2630925940 0.0016958747 0.0171350434 0.4830148028 0.0590622528 0.0012750485 0.3489259121 0.0803824280 0.0180496699 0.3108163334 0.0658146147 0.0061260137 0.4298759443 0.0215379831 0.0086117773 0.3888809398 0.0084452311 0.0053755792 0.2412910679 0.0427319568 0.0076202093 0.2802565944 0.0349575696 0.0204563479 0.2291841517 0.0159653481 0.0300664002 0.0504246145 0.0818413547 0.0161978041 0.0779101771 0.1010560177 0.0058370514 0.0338772642 0.0689518857 0.0244103559 0.4409928988 0.0894914653 0.0017512313 0.1416144675 0.0234293321 0.0086819542 0.1594615170 0.0139686884 0.0049319019 0.0403502307 0.0653804171 0.0070646859 0.3102223856 0.0005594895 0.0065886690 0.3716428512 0.0254287171 0.0001785263 0.4056891205 0.0024648779 0.0143572066 0.4583282422 0.0472699184 0.0064109316 0.4207201526 0.0151555704 0.0064875891 0.4088647555 0.0093887452 0.0047307345 0.3697538813 0.0290890950 0.0047652412 0.4673909965 0.0696680779 0.0011688366 0.3091189291 0.0761792327 0.0128949557 0.2713858790 0.0493891788 0.0130020421 0.3948493678 0.0693261479 0.0006729667 0.2045664149 0.0291037756 0.0250161443 0.2847847038 0.0581447000 0.0213871593 0.4227701794 0.0096277419 0.0217275683 0.2861412023 0.0380561355 0.0216448954 0.2289830142 0.0629224874 0.0257262358 0.3619250113 0.0060395573 0.0130913600 0.2459129380 0.0557237892 0.0252811446 0.1258329411 0.0178019812 0.0140617681 0.0660156848 0.0386139797 0.0052838493 0.0767051767 0.0624516045 0.0006550950 0.0058574633 0.0770940864 0.0080269765 0.4385127155 0.0085128238 0.0008607870 0.4796554252 0.0388287464 0.0008888771 0.3116385665 0.0508910124 0.0061619707 0.3059009870 0.0214898712 0.0153669656 0.1876772151 0.0186943713 0.0301492345 0.3899312381 0.0543530600 0.0006657869 0.3712463174 0.0451969256 0.0053620836 0.3193023519 0.0589273597 0.0042750609 0.3092478037 0.0674164879 0.0106186676 0.2317414214 0.0818132386 0.0284009770 0.3175797974 0.0471134961 0.0139377484 0.2962247188 0.0636205497 0.0141824288 0.2335305983 0.0062080730 0.0192324779 0.1018493585 0.0598327364 0.0149313372 0.3313103261 0.0049174069 0.0002765219 0.3037166464 0.0146662230 0.0220058256 0.4585106386 0.0638059741 0.0142682974 0.1347626640 0.0273073611 0.0004704005 0.1580395518 0.0003304221 0.0099170082 0.0579887092 0.0523873195 0.0006918353 0.3634699012 0.0285755119 0.0004668689 0.3852319721 0.0178454161 0.0009709522 0.4363057111 0.0022338242 0.0003335342 0.2988184031 0.0438522635 0.0002266495 0.4492497240 0.0500945512 0.0002517780 0.3199084860 0.0270587800 0.0047618423 0.3379669854 0.0375027077 0.0000987363 0.3369974534 0.0569775905 0.0040543691 0.3800580451 0.0615390941 0.0040658178 0.2196971208 0.0518977927 0.0204813847 0.4244718050 0.0767552930 0.0090841835 0.2584726006 0.0242570894 0.0034059337 0.3904183234 0.0605100721 0.0161011467 0.0096878601 0.0882552013 0.0113098639 0.1032146575 0.0230722027 0.0149247425 0.0429268130 0.0425168180 0.0215307684 0.0362213304 0.0979347523 0.0142440205 0.2204211616 0.1214025864 0.0312983960 0.1181297070 0.0082664271 0.0145403508 0.0538977735 0.0152842573 0.0045698626 0.0858180483 0.0139880250 0.0006622262 0.3709003038 0.0116684605 0.0013667109 0.3401186400 0.0243695106 0.0094472091 0.3816173779 0.0022137364 0.0128745141 0.3859246800 0.0513554830 0.0002562769 0.1004223162 0.0215969183 0.0324271189 0.4107515108 0.0539489418 0.0008231815 0.3324806255 0.0441014867 0.0003910586 0.4118069613 0.0880956432 0.0007540719 0.3886568418 0.0498543427 0.0144498524 0.2294794862 0.0597414562 0.0103178690 0.3056756458 0.0310368515 0.0160089238 0.2494048498 0.0389781044 0.0112275145 0.1969379337 0.0190595567 0.0364046964 0.1837282635 0.0653628802 0.0321904082 0.0478891737 0.0770592676 0.0175201637 0.2574434347 0.0088045879 0.0070725630 0.1754391523 0.0368273126 0.0280393849 0.0603842941 0.0466284678 0.0300002529 0.0409017456 0.0149553732 0.0064473113 0.1760002815 0.0276352621 0.0045681161 0.1013017824 0.0074407479 0.0004026026 0.3495329536 0.0004684100 0.0115852885 0.4303275063 0.0006882345 0.0122957186 0.4340309319 0.0002295627 0.0058483112 0.3720189954 0.0078383811 0.0066264193 0.2827509366 0.0246166639 0.0005312495 0.0166007449 0.0183234900 0.0088713547 0.0180139959 0.0739662207 0.0008148614 0.3153582362 0.0646441437 0.0090190549 0.4161252800 0.0755945289 0.0052463890 0.3381247567 0.0617032282 0.0000609294 0.3433003916 0.0679078391 0.0091105227 0.3534467109 0.0677711799 0.0185343610 0.4224455860 0.0987874161 0.0158297156 0.3787178760 0.0804262531 0.0221683028 0.0169799779 0.0693380946 0.0047589788 0.0241048256 0.0379181220 0.0205957494 0.4294794911 0.0370763736 0.0044614439 0.0594038788 0.0464081639 0.0168255782 0.1521097955 0.0283465111 0.0128860049 0.1505492122 0.0466646970 0.0099172220 0.1526280117 0.0369323224 0.0008594158 0.3717584444 0.0004437330 0.0048977629 0.3793690137 0.0148492750 0.0051953217 0.3951021947 0.0130114224 0.0006317811 0.3777361811 0.0337787085 0.0002534645 0.3688574517 0.0546445967 0.0002291438 0.3717128819 0.0247067218 0.0059135823 0.2839126477 0.0112714823 0.0000262492 0.3847031233 0.0738192203 0.0000947464 0.4043702388 0.0335545898 0.0140937260 0.3044974858 0.0425041056 0.0127307036 0.4263059198 0.0274293241 0.0006808731 0.2214944031 0.0880276043 0.0235348481 0.2121225971 0.0002126902 0.0014412095 0.2361847954 0.0693481326 0.0265947691 0.1210877227 0.0979935785 0.0315556491 0.3543786088 0.0609844295 0.0113066214 0.0104974056 0.0355504879 0.0292054277 0.4157579289 0.0554980424 0.0156725008 0.1392667660 0.0301022628 0.0006748110 0.0967901937 0.0239925748 0.0010015075 0.0525054364 0.0419948881 0.0006576676 0.3038175792 0.0360111353 0.0048625455 0.2513459656 0.0220425967 0.0092730881 0.3823981559 0.0075728711 0.0094926414 0.2879048291 0.0443376176 0.0006714462 0.4177134914 0.0868880533 0.0000527907 0.0630395768 0.0491374511 0.0145351377 0.3650679059 0.0190726197 0.0005647851 0.4530614422 0.0826878500 0.0004806109 0.4882380641 0.0817574835 0.0008524491 0.2428260705 0.0652345888 0.0011864470 0.4699074633 0.0702602054 0.0113642956 0.2787578713 0.0594222858 0.0121315516 0.1927501387 0.0617847481 0.0134121752 0.1815045665 0.0663029559 0.0261494242 0.0412927639 0.0302814527 0.0031331892 0.2016503324 0.0591124355 0.0048881303 0.2916141076 0.1067162765 0.0166902545 0.4276636913 0.0662165663 0.0140621251 0.1484723211 0.0321044774 0.0097052048 0.1517395400 0.0532925104 0.0107832512 0.1598400955 0.0119839439 0.0001599109 0.3198077208 0.0085663413 0.0076564555 0.0434541088 0.0586990052 0.0130389600 0.2769646298 0.0362763113 0.0060221421 0.3264952407 0.0465122770 0.0002464860 0.2721830648 0.0243180761 0.0013274867 0.4338572895 0.0690988336 0.0047349476 0.2626838475 0.0447306841 0.0028835794 0.4185895291 0.0427557547 0.0124760696 0.4244165563 0.0810070381 0.0159743102 0.3800507138 0.0366079
[...]
      <PointData Scalars="smoothLength">
        <DataArray type="Float32" Name="smoothLength" format="ascii">
 0.0065000000 0.0065000000 0.0065000000 0.0065000000 0.0065000000 0.0065000000 0.0065000000 0.0065000000 0.0065000000 0.0065000000 0.0065000000 0.0065000000 0.0065000000 0.0065000000 0.0065000000 0.0065000000 0.0065000000 0.0065000000 0.0065000000 0.0065000000 0.0065000000 0.0065000000 0.0065000000 0.0065000000 0.0065000000 0.0065000000 0.0065000000 0.0065000000 0.0065000000 0.0065000000 0.0065000000 0.0065000000 0.0065000000 0.0065000000 0.0065000000 0.0065000000 0.0065000000 0.0065000000 0.0065000000 0.0065000000 0.0065000000 0.0065000000 0.0065000000 0.0065000000 0.0065000000 0.0065000000 0.0065000000 0.0065000000 0.0065000000 0.0065000000 0.0065000000 0.0065000000 0.0065000000 0.0065000000 0.0065000000 0.0065000000 0.0065000000 0.0065000000 0.0065000000 0.0065000000 0.0065000000 0.0065000000 0.0065000000 0.0065000000 0.0065000000 0.0065000000 0.0065000000 0.0065000000 0.0065000000 0.0065000000 0.0065000000 0.0065000000 0.0065000000 0.0065000000 0.0065000000 0.0065000000 0.0065000000 0.0065000000 0.0065000000 0.0065000000 0.0065000000 0.0065000000 0.0065000000 0.0065000000 0.0065000000 0.0065000000 0.0065000000 0.0065000000 0.0065000000 0.0065000000 0.0065000000 0.0065000000 0.0065000000 0.0065000000 0.0065000000 0.0065000000 0.0065000000 0.0065000000 0.0065000000 0.0065000000 0.0065000000 0.0065000000 0.0065000000 0.0065000000 0.0065000000 0.0065000000 0.0065000000 0.0065000000 0.0065000000 0.0065000000 0.0065000000 0.0065000000 0.0065000000 0.0065000000 0.0065000000 0.0065000000 0.0065000000 0.0065000000 0.0065000000 0.0065000000 0.0065000000 0.0065000000 0.0065000000 0.0065000000 0.0065000000 0.0065000000 0.0065000000 0.0065000000 0.0065000000 0.0065000000 0.0065000000 0.0065000000 0.0065000000 0.0065000000 0.0065000000 0.0065000000 0.0065000000 0.0065000000 0.0065000000 0.0065000000 0.0065000000 0.0065000000 0.0065000000 0.0065000000 0.0065000000 0.0065000000 0.0065000000 0.0065000000 0.0065000000 0.0065000000 0.0065000000 0.0065000000 0.0065000000 0.0065000000 0.0065000000 0.0065000000 0.0065000000 0.0065000000 0.0065000000 0.0065000000 0.0065000000 0.0065000000 0.0065000000 0.0065000000 0.0065000000 0.0065000000 0.0065000000 0.0065000000 0.0065000000 0.0065000000 0.0065000000 0.0065000000 0.0065000000 0.0065000000 0.0065000000 0.0065000000 0.0065000000 0.0065000000 0.0065000000 0.0065000000 0.0065000000 0.0065000000 0.0065000000 0.0065000000 0.0065000000 0.0065000000 0.0065000000 0.0065000000 0.0065000000 0.0065000000 0.0065000000 0.0065000000 0.0065000000 0.0065000000 0.0065000000 0.0065000000 0.0065000000 0.0065000000 0.0065000000 0.0065000000 0.0065000000 0.0065000000 0.0065000000 0.0065000000 0.0065000000 0.0065000000 0.0065000000 0.0065000000 0.0065000000 0.0065000000 0.0065000000 0.0065000000 0.0065000000 0.0065000000 0.0065000000 0.0065000000 0.0065000000 0.0065000000 0.0065000000 0.0065000000 0.0065000000 0.0065000000 0.0065000000 0.0065000000 0.0065000000 0.0065000000 0.0065000000 0.0065000000 0.0065000000 0.0065000000 0.0065000000 0.0065000000 0.0065000000 0.0065000000 0.0065000000 0.0065000000 0.0065000000 0.0065000000 0.0065000000 0.0065000000 0.0065000000 0.0065000000 0.0065000000 0.0065000000 0.0065000000 0.0065000000 0.0065000000 0.0065000000 0.0065000000 0.0065000000 0.0065000000 0.0065000000 0.0065000000 0.0065000000 0.0065000000 0.0065000000 0.0065000000 0.0065000000 0.0065000000 0.0065000000 0.0065000000 0.0065000000 0.0065000000 0.0065000000 0.0065000000 0.0065000000 0.0065000000 0.0065000000 0.0065000000 0.0065000000 0.0065000000 0.0065000000 0.0065000000 0.0065000000 0.0065000000 0.0065000000 0.0065000000 0.0065000000 0.0065000000 0.0065000000 0.0065000000 0.0065000000 0.0065000000 0.0065000000 0.0065000000 0.0065000000 0.0065000000 0.0065000000 0.0065000000 0.0065000000 0.0065000000 0.0065000000 0.0065000000 0.0065000000 0.0065000000 0.0065000000 0.0065000000 0.0065000000 0.0065000000 0.0065000000 0.0065000000 0.0065000000 0.0065000000 0.0065000000 0.0065000000 0.0065000000 0.0065000000 0.0065000000 0.0065000000 0.0065000000 0.0065000000 0.0065000000 0.0065000000 0.0065000000 0.0065000000 0.0065000000 0.0065000000 0.0065000000 0.0065000000 0.0065000000 0.0065000000 0.0065000000 0.0065000000 0.0065000000 0.0065000000 0.0065000000 0.0065000000 0.0065000000 0.0065000000 0.0065000000 0.0065000000 0.0065000000 0.0065000000 0.0065000000 0.0065000000 0.0065000000 0.0065000000 0.0065000000 0.0065000000 0.0065000000 0.0065000000 0.0065000000 0.0065000000 0.0065000000 0.0065000000 0.0065000000 0.0065000000 0.0065000000 0.0065000000 0.0065000000 0.0065000000 0.0065000000 0.0065000000 0.0065000000 0.0065000000 0.0065000000 0.0065000000 0.0065000000 0.0065000000 0.0065000000 0.0065000000 0.0065000000 0.0065000000 0.0065000000 0.0065000000 0.0065000000 0.0065000000 0.0065000000 0.0065000000 0.0065000000 0.0065000000 0.0065000000 0.0065000000 0.0065000000 0.0065000000 0.0065000000 0.0065000000 0.0065000000 0.0065000000 0.0065000000 0.0065000000 0.0065000000 0.0065000000 0.0065000000 0.0065000000 0.0065000000 0.0065000000 0.0065000000 0.0065000000 0.0065000000 0.0065000000 0.0065000000 0.0065000000 0.0065000000 0.0065000000 0.0065000000 0.0065000000 0.0065000000 0.0065000000 0.0065000000 0.0065000000 0.0065000000 0.0065000000 0.0065000000 0.0065000000 0.0065000000 0.0065000000 0.0065000000 0.0065000000 0.0065000000 0.0065000000 0.0065000000 0.0065000000 0.0065000000 0.0065000000 0.0065000000 0.0065000000 0.0065000000 0.0065000000 0.0065000000 0.0065000000 0.0065000000 0.0065000000 0.0065000000 0.0065000000 0.0065000000 0.0065000000 0.0065000000 0.0065000000 0.0065000000 0.0065000000 0.0065000000 0.0065000000 0.0065000000 0.0065000000 0.0065000000 0.0065000000 0.0065000000 0.0065000000 0.0065000000 0.0065000000 0.0065000000 0.0065000000 0.0065000000 0.0065000000 0.0065000000 0.0065000000 0.0065000000 0.0065000000 0.0065000000 0.0065000000 0.0065000000 0.0065000000 0.0065000000 0.0065000000 0.0065000000 0.0065000000 0.0065000000 0.0065000000 0.0065000000 0.0065000000 0.0065000000 0.0065000000 0.0065000000 0.0065000000 0.0065000000 0.0065000000 0.0065000000 0.0065000000 0.0065000000 0.0065000000 0.0065000000 0.0065000000 0.0065000000 0.0065000000 0.0065000000 0.0065000000 0.0065000000 0.0065000000 0.0065000000 0.0065000000 0.0065000000 0.0065000000 0.0065000000 0.0065000000 0.0065000000 0.0065000000 0.0065000000 0.0065000000 0.0065000000 0.0065000000 0.0065000000 0.0065000000 0.0065000000 0.0065000000 0.0065000000 0.0065000000 0.0065000000 0.0065000000 0.0065000000 0.0065000000 0.0065000000 0.0065000000 0.0065000000 0.0065000000 0.0065000000 0.0065000000 0.0065000000 0.0065000000 0.0065000000 0.0065000000 0.0065000000 0.0065000000 0.0065000000 0.0065000000 0.0065000000 0.0065000000 0.0065000000 0.0065000000 0.0065000000 0.0065000000 0.0065000000 0.0065000000 0.0065000000 0.0065000000 0.0065000000 0.0065000000 0.0065000000 0.0065000000 0.0065000000 0.0065000000 0.0065000000 0.0065000000 0.0065000000 0.0065000000 0.0065000000 0.0065000000 0.0065000000 0.0065000000 0.0065000000 0.0065000000 0.0065000000 0.0065000000 0.0065000000 0.0065000000 0.0065000000 0.0065000000 0.0065000000 0.0065000000 0.0065000000 0.0065000000 0.0065000000 0.0065000000 0.0065000000 0.0065000000 0.0065000000 0.0065000000 0.0065000000 0.0065000000 0.0065000000 0.0065000000 0.0065000000 0.0065000000 0.0065000000 0.0065000000 0.0065000000 0.0065000000 0.0065000000 0.0065000000 0.0065000000 0.0065000000 0.0065000000 0.0065000000 0.0065000000 0.0065000000 0.0065000000 0.0065000000 0.0065000000 0.0065000000 0.0065000000 0.0065000000 0.0065000000 0.0065000000 0.0065000000 0.0065000000 0.0065000000 0.0065000000 0.0065000000 0.0065000000 0.0065000000 0.0065000000 0.0065000000 0.0065000000 0.0065000000 0.0065000000 0.0065000000 0.0065000000 0.0065000000 0.0065000000 0.0065000000 0.0065000000 0.0065000000 0.0065000000 0.0065000000 0.0065000000 0.0065000000 0.0065000000 0.0065000000 0.0065000000 0.0065000000 0.0065000000 0.0065000000 0.0065000000 0.0065000000 0.0065000000 0.0065000000 0.0065000000 0.0065000000 0.0065000000 0.0065000000 0.0065000000 0.0065000000 0.0065000000 0.0065000000 0.0065000000 0.0065000000 0.0065000000 0.0065000000 0.0065000000 0.0065000000 0.0065000000 0.0065000000 0.0065000000 0.0065000000 0.0065000000 0.0065000000 0.0065000000 0.0065000000 0.0065000000 0.0065000000 0.0065000000 0.0065000000 0.0065000000 0.0065000000 0.0065000000 0.0065000000 0.0065000000 0.0065000000 0.0065000000 0.0065000000 0.0065000000 0.0065000000 0.0065000000 0.0065000000 0.0065000000 0.0065000000 0.0065000000 0.0065000000 0.0065000000 0.0065000000 0.0065000000 0.0065000000 0.0065000000 0.0065000000 0.0065000000 0.0065000000 0.0065000000 0.0065000000 0.0065000000 0.0065000000 0.0065000000 0.0065000000 0.0065000000 0.0065000000 0.0065000000 0.0065000000 0.0065000000 0.0065000000 0.0065000000 0.0065000000 0.0065000000 0.0065000000 0.0065000000 0.0065000000 0.0065000000 0.0065000000 0.0065000000 0.0065000000 0.0065000000 0.0065000000 0.0065000000 0.0065000000 0.0065000000 0.0065000000 0.0065000000 0.0065000000 0.0065000000 0.0065000000 0.0065000000 0.0065000000 0.0065000000 0.0065000000 0.0065000000 0.0065000000 0.0065000000 0.0065000000 0.0065000000 0.0065000000 0.0065000000 0.0065000000 0.0065000000 0.0065000000 0.0065000000 0.0065000000 0.0065000000 0.0065000000 0.0065000000 0.0065000000 0.0065000000 0.0065000000 0.0065000000 0.0065000000 0.0065000000 0.0065000000 0.0065000000 0.0065000000 0.0065000000 0.0065000000 0.0065000000 0.0065000000 0.0065000000 0.0065000000 0.0065000000 0.0065000000 0.0065000000 0.0065000000 0.0065000000 0.0065000000 0.0065000000 0.0065000000 0.0065000000 0.0065000000 0.0065000000 0.0065000000 0.0065000000 0.0065000000 0.0065000000 0.0065000000 0.0065000000 0.0065000000 0.0065000000 0.0065000000 0.0065000000 0.0065000000 0.0065000000 0.0065000000 0.0065000000 0.0065000000 0.0065000000 0.0065000000 0.0065000000 0.0065000000 0.0065000000 0.0065000000 0.0065000000 0.0065000000 0.0065000000 0.0065000000 0.0065000000 0.0065000000 0.0065000000 0.0065000000 0.0065000000 0.0065000000 0.0065000000 0.0065000000 0.0065000000 0.0065000000 0.0065000000 0.0065000000 0.0065000000 0.0065000000 0.0065000000 0.0065000000 0.0065000000 0.0065000000 0.0065000000 0.0065000000 0.0065000000 0.0065000000 0.0065000000 0.0065000000 0.0065000000 0.0065000000 0.0065000000 0.0065000000 0.0065000000 0.0065000000 0.0065000000 0.0065000000 0.0065000000 0.0065000000 0.0065000000 0.0065000000 0.0065000000 0.0065000000 0.0065000000 0.0065000000 0.0065000000 0.0065000000 0.0065000000 0.0065000000 0.0065000000 0.0065000000 0.0065000000 0.0065000000 0.0065000000 0.0065000000 0.0065000000 0.0065000000 0.0065000000 0.0065000000 0.0065000000 0.0065000000 0.0065000000 0.0065000000 0.0065000000 0.0065000000 0.0065000000 0.0065000000 0.0065000000 0.0065000000 0.0065000000 0.0065000000 0.0065000000 0.0065000000 0.0065000000 0.0065000000 0.0065000000 0.0065000000 0.0065000000 0.0065000000 0.0065000000 0.0065000000 0.0065000000 0.0065000000 0.0065000000 0.0065000000 0.0065000000 0.0065000000 0.0065000000 0.0065000000 0.0065000000 0.0065000000 0.0065000000 0.0065000000 0.0065000000 0.0065000000 0.0065000000 0.0065000000 0.0065000000 0.0065000000 0.0065000000 0.0065000000 0.0065000000 0.0065000000 0.0065000000 0.0065000000 0.0065000000 0.0065000000 0.0065000000 0.0065000000 0.0065000000 0.0065000000 0.0065000000 0.0065000000 0.0065000000 0.0065000000 0.0065000000 0.0065000000 0.0065000000 0.0065000000 0.0065000000 0.0065000000 0.0065000000 0.0065000000 0.0065000000 0.0065000000 0.0065000000 0.0065000000 0.0065000000 0.0065000000 0.0065000000 0.0065000000 0.0065000000 0.0065000000 0.0065000000 0.0065000000 0.0065000000 0.0065000000 0.0065000000 0.0065000000 0.0065000000 0.0065000000 0.0065000000 0.0065000000 0.0065000000 0.0065000000 0.0065000000 0.0065000000 0.0065000000 0.0065000000 0.0065000000 0.0065000000 0.0065000000 0.0065000000 0.0065000000 0.0065000000 0.0065000000 0.0065000000 0.0065000000 0.0065000000 0.0065000000 0.0065000000 0.0065000000 0.0065000000 0.0065000000 0.0065000000 0.0065000000 0.0065000000 0.0065000000 0.0065000000 0.0065000000 0.0065000000 0.0065000000 0.0065000000 0.0065000000 0.0065000000 0.0065000000 0.0065000000 0.0065000000 0.0065000000 0.0065000000 0.0065000000 0.0065000000 0.0065000000 0.0065000000 0.0065000000 0.0065000000 0.0065000000 0.0065000000 0.0065000000 0.0065000000 0.0065000000 0.0065000000 0.0065000000 0.0065000000 0.0065000000 0.0065000000 0.0065000000 0.0065000000 0.0065000000 0.0065000000 0.0065000000 0.0065000000 0.0065000000 0.0065000000 0.0065000000 0.0065000000 0.0065000000 0.0065000000 0.0065000000 0.0065000000 0.0065000000 0.0065000000 0.0065000000 0.0065000000 0.0065000000 0.0065000000 0.0065000000 0.0065000000 0.0065000000 0.0065000000 0.0065000000 0.0065000000 0.0065000000 0.0065000000 0.0065000000 0.0065000000 0.0065000000 0.0065000000 0.0065000000 0.0065000000 0.0065000000 0.0065000000 0.0065000000 0.0065000000 0.0065000000 0.0065000000 0.0065000000 0.0065000000 0.0065000000 0.0065000000 0.0065000000 0.0065000000 0.0065000000 0.0065000000 0.0065000000 0.0065000000 0.0065000000 0.0065000000 0.0065000000 0.0065000000 0.0065000000 0.0065000000 0.0065000000 0.0065000000 0.0065000000 0.0065000000 0.0065000000 0.0065000000 0.0065000000 0.0065000000 0.0065000000 0.0065000000 0.0065000000 0.0065000000 0.0065000000 0.0065000000 0.0065000000 0.0065000000 0.0065000000 0.0065000000 0.0065000000 0.0065000000 0.0065000000 0.0065000000 0.0065000000 0.0065000000 0.0065000000 0.0065000000 0.0065000000 0.0065000000 0.0065000000 0.0065000000 0.0065000000 0.0065000000 0.0065000000 0.0065000000 0.0065000000 0.0065000000 0.0065000000 0.0065000000 0.0065000000 0.0065000000 0.0065000000 0.0065000000 0.0065000000 0.0065000000 0.0065000000 0.0065000000 0.0065000000 0.0065000000 0.0065000000 0.0065000000 0.0065000000 0.0065000000 0.0065000000 0.0065000000 0.0065000000 0.0065000000 0.0065000000 0.0065000000 0.0065000000 0.0065000000 0.0065000000 0.0065000000 0.0065000000 0.0065000000 0.0065000000 0.0065000000 0.0065000000 0.0065000000 0.0065000000 0.0065000000 0.0065000000 0.0065000000 0.0065000000 0.0065000000 0.0065000000 0.0065000000 0.0065000000 0.0065000000 0.0065000000 0.0065000000 0.0065000000 0.0065000000 0.0065000000 0.0065000000 0.0065000000 0.0065000000 0.0065000000 0.0065000000 0.0065000000 0.0065000000 0.0065000000 0.0065000000 0.0065000000 0.0065000000 0.0065000000 0.0065000000 0.0065000000 0.0065000000 0.0065000000 0.0065000000 0.0065000000 0.0065000000 0.0065000000 0.0065000000 0.0065000000 0.0065000000 0.0065000000 0.0065000000 0.0065000000 0.0065000000 0.0065000000 0.0065000000 0.0065000000 0.0065000000 0.0065000000 0.0065000000 0.0065000000 0.0065000000 0.0065000000 0.0065000000 0.0065000000 0.0065000000 0.0065000000 0.0065000000 0.0065000000 0.0065000000 0.0065000000 0.0065000000 0.0065000000 0.0065000000 0.0065000000 0.0065000000 0.0065000000 0.0065000000 0.0065000000 0.0065000000 0.0065000000 0.0065000000 0.0065000000 0.0065000000 0.0065000000 0.0065000000 0.0065000000 0.0065000000 0.0065000000 0.0065000000 0.0065000000 0.0065000000 0.0065000000 0.0065000000 0.0065000000 0.0065000000 0.0065000000 0.0065000000 0.0065000000 0.0065000000 0.0065000000 0.0065000000 0.0065000000 0.0065000000 0.0065000000 0.0065000000 0.0065000000 0.0065000000 0.0065000000 0.0065000000 0.0065000000 0.0065000000 0.0065000000 0.0065000000 0.0065000000 0.0065000000 0.0065000000 0.0065000000 0.0065000000 0.0065000000 0.0065000000 0.0065000000 0.0065000000 0.0065000000 0.0065000000 0.0065000000 0.0065000000 0.0065000000 0.0065000000 0.0065000000 0.0065000000 0.0065000000 0.0065000000 0.0065000000 0.0065000000 0.0065000000 0.0065000000 0.0065000000 0.0065000000 0.0065000000 0.0065000000 0.0065000000 0.0065000000 0.0065000000 0.0065000000 0.0065000000 0.0065000000 0.0065000000 0.0065000000 0.0065000000 0.0065000000 0.0065000000 0.0065000000 0.0065000000 0.0065000000 0.0065000000 0.0065000000 0.0065000000 0.0065000000 0.0065000000 0.0065000000 0.0065000000 0.0065000000 0.0065000000 0.0065000000 0.0065000000 0.0065000000 0.0065000000 0.0065000000 0.0065000000 0.0065000000 0.0065000000 0.0065000000 0.0065000000 0.0065000000 0.0065000000 0.0065000000 0.0065000000 0.0065000000 0.0065000000 0.0065000000 0.0065000000 0.0065000000 0.0065000000 0.0065000000 0.0065000000 0.0065000000 0.0065000000 0.0065000000 0.0065000000 0.0065000000 0.0065000000 0.0065000000 0.0065000000 0.0065000000 0.0065000000 0.0065000000 0.0065000000 0.0065000000 0.0065000000 0.0065000000 0.0065000000 0.0065000000 0.0065000000 0.0065000000 0.0065000000 0.0065000000 0.0065000000 0.0065000000 0.0065000000 0.0065000000 0.0065000000 0.0065000000 0.0065000000 0.0065000000 0.0065000000 0.0065000000 0.0065000000 0.0065000000 0.0065000000 0.0065000000 0.0065000000 0.0065000000 0.0065000000 0.0065000000 0.0065000000 0.0065000000 0.0065000000 0.0065000000 0.0065000000 0.0065000000 0.0065000000 0.0065000000 0.0065000000 0.0065000000 0.0065000000 0.0065000000 0.0065000000 0.0065000000 0.0065000000 0.0065000000 0.0065000000 0.0065000000 0.0065000000 0.0065000000 0.0065000000 0.0065000000 0.0065000000 0.0065000000 0.0065000000 0.0065000000 0.0065000000 0.0065000000 0.0065000000 0.0065000000 0.0065000000 0.0065000000 0.0065000000 0.0065000000 0.0065000000 0.0065000000 0.0065000000 0.0065000000 0.0065000000 0.0065000000 0.0065000000 0.0065000000 0.0065000000 0.0065000000 0.0065000000 0.0065000000 0.0065000000 0.0065000000 0.0065000000 0.0065000000 0.0065000000 0.0065000000 0.0065000000 0.0065000000 0.0065000000 0.0065000000 0.0065000000 0.0065000000 0.0065000000 0.0065000000 0.0065000000 0.0065000000 0.0065000000 0.0065000000 0.0065000000 0.0065000000 0.0065000000 0.0065000000 0.0065000000 0.0065000000 0.0065000000 0.0065000000 0.0065000000 0.0065000000 0.0065000000 0.0065000000 0.0065000000 0.0065000000 0.0065000000 0.0065000000 0.0065000000 0.0065000000 0.0065000000 0.0065000000 0.0065000000 0.0065000000 0.0065000000 0.0065000000 0.0065000000 0.0065000000 0.0065000000 0.0065000000 0.0065000000 0.0065000000 0.0065000000 0.0065000000 0.0065000000 0.0065000000 0.0065000000 0.0065000000 0.0065000000 0.0065000000 0.0065000000 0.0065000000 0.0065000000 0.0065000000 0.0065000000 0.0065000000 0.0065000000 0.0065000000 0.0065000000 0.0065000000 0.0065000000 0.0065000000 0.0065000000 0.0065000000 0.0065000000 0.0065000000 0.0065000000 0.0065000000 0.0065000000 0.0065000000 0.0065000000 0.0065000000 0.0065000000 0.0065000000 0.0065000000 0.0065000000 0.0065000000 0.0065000000 0.0065000000 0.0065000000 0.0065000000 0.0065000000 0.0065000000 0.0065000000 0.0065000000 0.0065000000 0.0065000000 0.0065000000 0.0065000000 0.0065000000 0.0065000000 0.0065000000 0.0065000000 0.0065000000 0.0065000000 0.0065000000 0.0065000000 0.0065000000 0.0065000000 0.0065000000 0.0065000000 0.0065000000 0.0065000000 0.0065000000 0.0065000000 0.0065000000 0.0065000000 0.0065000000 0.0065000000 0.0065000000 0.0065000000 0.0065000000 0.0065000000 0.0065000000 0.0065000000 0.0065000000 0.0065000000 0.0065000000 0.0065000000 0.0065000000 0.0065000000 0.0065000000 0.0065000000 0.0065000000 0.0065000000 0.0065000000 0.0065000000 0.0065000000 0.0065000000 0.0065000000 0.0065000000 0.0065000000 0.0065000000 0.0065000000 0.0065000000 0.0065000000 0.0065000000 0.0065000000 0.0065000000 0.0065000000 0.0065000000 0.0065000000 0.0065000000 0.0065000000 0.0065000000 0.0065000000 0.0065000000 0.0065000000 0.0065000000 0.0065000000 0.0065000000 0.0065000000 0.0065000000 0.0065000000 0.0065000000 0.0065000000 0.0065000000 0.0065000000 0.0065000000 0.0065000000 0.0065000000 0.0065000000 0.0065000000 0.0065000000 0.0065000000 0.0065000000 0.0065000000 0.0065000000 0.0065000000 0.0065000000 0.0065000000 0.0065000000 0.0065000000 0.0065000000 0.0065000000 0.0065000000 0.0065000000 0.0065000000 0.0065000000 0.0065000000 0.0065000000 0.006500000