<?xml version="1.0"?>
<VTKFile type="UnstructuredGrid" version="0.1" byte_order="LittleEndian">
  <UnstructuredGrid>
    <FieldData>
      <DataArray type="Float32" Name="TIME"  NumberOfTuples="1" format="ascii"> 1.4989675741 </DataArray>
      <DataArray type="Int32"   Name="STEP"  NumberOfTuples="1" format="ascii"> 20100 </DataArray>
    </FieldData>
    <Piece NumberOfPoints="18081" NumberOfCells="18081">
      <Points>
        <DataArray type="Float32" NumberOfComponents="3" format="ascii">
 0.0745021735 0.0213300534 0.0093404023 0.0763721511 0.0002709476 0.0085373491 0.0564426310 0.0044761582 0.0243975737 0.1291536608 0.0008285395 -0.0000071076 0.1116864964 0.0069318714 0.0160690157 0.0959240272 0.0035224047 -0.0002329945 0.3277979309 0.0055284541 0.0002429020 0.3799967614 0.0178438114 -0.0010945551 0.1494923765 0.0065041195 0.0360861105 0.1019647328 0.0080138208 0.0300403335 0.1826019792 0.0229480823 -0.0002120904 0.3473665780 0.0451526608 0.0066849328 0.4231534286 0.0219898672 0.0001085578 0.3716446639 0.0523018472 0.0068668511 0.2330816834 0.0322513376 0.0045367479 0.4450956796 0.0287407965 -0.0003851685 0.2697082540 0.0035701254 0.0039508510 0.2225865359 0.0165393660 0.0032918257 0.0962954241 0.0248276813 0.0428310284 0.1795057978 0.0069814780 0.0212479478 0.1432075134 0.0359177873 0.0407735349 0.0617341367 0.0046671365 -0.0001947365 0.0565244714 0.0022342909 -0.0002026164 0.0008200033 0.0138068085 0.0102322532 0.0346016212 0.0136004430 0.0234003655 0.1688141769 -0.0001654620 0.0016759954 0.2570947252 0.0217943690 0.0012674844 0.2538286844 0.0181774442 -0.0011712780 0.4223689497 0.0007754613 0.0000211833 0.1453501657 0.0091323903 0.0361614017 0.4726743097 0.0337836782 0.0025744818 0.4106628287 0.0279504933 0.0002815740 0.4235010869 0.0374177245 0.0010267679 0.4274235811 0.0566550404 0.0195408163 0.4168339546 0.0180900747 0.0173868107 0.2679504473 0.0129326062 0.0041443109 0.4318189858 0.0058286176 0.0042119639 0.1890788094 0.0289536258 0.0137583233 0.0914935810 0.0180707626 0.0360784141 0.1069406970 0.0152196699 0.0339567918 0.0462964115 0.0043897143 0.0189425852 0.1960255272 0.0444293052 0.0136913621 0.1024871220 0.0281089384 0.0000459934 0.0908860245 0.0003854400 0.0055476153 0.0853517163 0.0005312023 0.0000559809 0.0619122293 0.0164291528 0.0151026805 0.1103323683 0.0009030928 0.0218490450 0.2745203219 0.0167887389 0.0005526270 0.3754121644 0.0261995781 -0.0006083690 0.1373473236 0.0306986718 0.0264936638 0.1255818399 0.0319179098 0.0287168503 0.2726469832 0.0187979444 0.0011149756 0.4801635277 0.0174885660 0.0075745600 0.4194869624 0.0379744558 0.0131305434 0.4235848754 0.0453515143 0.0090417590 0.2396992325 0.0347760153 0.0047487224 0.4156867480 0.0350740116 0.0112164038 0.1610350351 0.0016979656 0.0034932109 0.1684373092 0.0100238405 0.0220228536 0.1572814910 0.0122089666 0.0264410400 0.3811445319 0.0014243398 0.0073229413 0.2503663056 0.0184712228 0.0055858951 0.1520775006 0.0333415193 0.0332839683 0.0672538720 0.0149734955 0.0060813021 0.0995293756 0.0235239131 -0.0003046296 0.0681109732 0.0104027856 0.0279071549 0.1047803117 0.0091670841 0.0207497507 0.1693293475 0.0076711928 0.0003750122 0.3113615512 0.0047663366 0.0000415647 0.3659392693 0.0129572096 -0.0003025412 0.1790334325 0.0264220243 0.0064580682 0.4646282719 0.0013388012 -0.0003369366 0.4907139314 0.0311631951 0.0135369094 0.4373194030 0.0483403012 0.0033817110 0.3657342823 0.0502441333 0.0052486118 0.4382247913 0.0373025002 0.0153109664 0.4148161116 0.0287771009 0.0182480940 0.1506395339 0.0182721630 0.0245302303 0.4995268052 0.0340914771 0.0067263620 0.0645800780 0.0239729459 0.0218230056 0.1265034251 0.0274762976 0.0197051557 0.0497375968 0.0288542854 0.0350360270 0.3839433554 0.0488933453 0.0087297567 0.1999698852 0.0314338897 0.0104363474 0.0744563351 0.0204683434 0.0043470092 0.0968954907 0.0003032542 0.0073247238 0.1172235591 0.0008327480 0.0119201444 0.0996407608 -0.0001891170 0.0005504052 0.0767242435 0.0076928482 0.0002835975 0.1552622897 0.0317534833 0.0091857093 0.2675766867 0.0334037088 0.0005028178 0.1613703474 0.0195260676 0.0232866622 0.1386794884 0.0369042239 0.0258521268 0.4487197546 0.0126185867 -0.0003188215 0.4965874258 0.0458911463 0.0044214081 0.3826514606 0.0441366615 0.0064473820 0.4121785341 0.0392860854 0.0089407219 0.4078775378 0.0521098921 0.0155734853 0.2215468382 0.0356041437 0.0041002912 0.0956303578 0.0328922567 0.0391311190 0.1994841135 0.0215146325 0.0027447492 0.1296054541 0.0328786619 0.0450314092 0.3537388337 0.0061267239 0.0067879615 0.1808322079 0.0332324828 0.0213045478 0.3984492290 0.0485931824 0.0123020702 0.0698231031 0.0174918113 -0.0002569574 0.0798477363 0.0262890178 0.0106365817 0.0956320355 0.0001757809 0.0306777504 0.0691506846 0.0089030378 0.0166293012 0.1034797797 -0.0002484829 0.0100552942 0.1949671783 0.0278035687 -0.0003861449 0.3593164968 0.0125339419 -0.0004012149 0.4425760880 0.0020631642 -0.0004116688 0.1618405706 0.0372483339 0.0154925114 0.2338390271 0.0181937621 0.0002057011 0.3524874409 0.0390341662 0.0055085696 0.3707113342 0.0564712589 0.0063624022 0.2657989932 0.0683115458 0.0046733678 0.4878837925 0.0472316535 0.0056455884 0.4235411865 0.0268347438 0.0005727038 0.1140994291 0.0251120280 0.0343340942 0.1803523090 0.0311982300 -0.0008090808 0.0166263020 0.0092677447 0.0202608205 0.0563597611 0.0396269849 0.0245181742 0.1854467847 0.0447993110 0.0208098418 0.1908632026 0.0331364025 0.0150019040 0.1120475878 0.0367948506 0.0043091937 0.1008224257 0.0191605560 0.0064226821 0.0899832461 0.0002118591 0.0008326557 0.0400396432 0.0134918441 0.0152958449 0.1064476719 0.0275781427 0.0233541391 0.1942893279 0.0111384355 -0.0002204841 0.4361636388 0.0132074166 0.0011458992 0.1600724468 0.0392815054 0.0101026479 0.2062402756 0.0215618836 -0.0002803770 0.4808793231 0.0327340424 0.0040119882 0.4138957353 0.0141322590 0.0057198346 0.4278825716 0.0548288467 0.0039864357 0.3572572082 0.0556424455 0.0070384850 0.4201354496 0.0501605424 0.0149059615 0.1712173753 0.0359143597 0.0165552284 0.1758718211 0.0412333967 0.0188942035 0.0974239188 0.0167916381 0.0242312180 0.1326733113 0.0329561207 0.0299520151 0.0020453037 0.0064407295 0.0284208376 0.4081764734 0.0594818323 0.0163467629 0.1293684990 0.0372806355 0.0462806135 0.1065290042 0.0255712543 0.0010524649 0.0312127285 0.0147675499 0.0298361201 0.0966265949 0.0362273303 0.0249791953 0.0776768939 0.0003854497 0.0176689044 0.0957966296 0.0185657481 -0.0000538640 0.1521588775 0.0480359630 0.0004093773 0.3990279937 0.0256130373 -0.0004632506 0.2136219146 0.0372718718 -0.0014187186 0.2013079968 0.0314451836 0.0007603075 0.1564251749 0.0415614392 0.0150514526 0.3539965558 0.0580894225 0.0064205920 0.4153214371 0.0462154941 0.0051353108 0.3799522657 0.0590343762 0.0073273822 0.1961825032 0.0320684979 0.0039188267 0.4063890783 0.0647358794 0.0140039455 0.1696235084 0.0439937365 0.0162104182 0.0305391094 0.0171077888 0.0255389568 0.0051636199 0.0144608193 0.0145093737 0.4300612473 0.0541944097 0.0210300928 0.0971901036 0.0453725855 0.0413129994 0.1475804729 0.0472398742 0.0405156710 0.1114300292 0.0259475823 -0.0006034595 0.1020193611 0.0606553416 0.0288600969 0.0678090753 0.0031789211 0.0196432419 0.0693476087 0.0039947761 0.0137160447 0.0594630336 0.0196888704 0.0179349668 0.2380114361 0.0329579665 0.0003625406 0.3648440130 0.0200422934 -0.0008639663 0.2404442556 0.0256353865 -0.0006319735 0.2711192537 0.0284508961 0.0036645926 0.1485170596 0.0368208316 0.0238037103 0.3078049791 0.0435972943 0.0028938515 0.4765288879 0.0488320909 0.0113747222 0.3554483535 0.0723739705 0.0060659094 0.4260173982 0.0654662625 0.0117378350 0.1700663306 0.0536284668 0.0074029667 0.1971920603 0.0477173465 0.0001238583 0.1539836887 0.0462529800 0.0260488162 0.1726963904 0.0354336117 0.0219844223 0.1816100307 0.0449628310 0.0185849391 0.3014664983 0.0732068496 0.0066821079 0.0975094511 0.0116431206 0.0392515866 0.1163918834 0.0386923488 -0.0004104953 0.1169178234 0.0323109783 0.0112182895 0.1019282720 0.0218959734 0.0100511722 0.0814992726 0.0228133304 0.0107411126 0.0361976242 0.0098054963 0.0185848567 0.2475838412 0.0454661143 0.0005790844 0.4071304946 0.0307729090 -0.0002193527 0.3906635998 0.0295112386 0.0013261349 0.4137390606 0.0174069964 0.0024322305 0.2497493456 0.0315264921 0.0001214686 0.4392284210 0.0401521087 0.0042376990 0.3872189357 0.0747505928 0.0059738617 0.4731719085 0.0581504167 0.0087796519 0.4403487094 0.0492783599 0.0102676921 0.2736235446 0.0713207981 0.0051969364 0.1875946163 0.0528032173 0.0197470908 0.1204028069 0.0669589172 0.0419318698 0.1413552884 0.0485648236 0.0395960765 0.1396927043 0.0478616985 0.0353344690 0.0474080216 0.0579673221 0.0292896206 0.1430726783 0.0578177702 0.0382404403 0.1141923248 0.0747171622 0.0016425599 0.1124016884 0.0827643818 0.0124177716 0.1056739672 0.0882111250 0.0062555823 0.1030067888 0.0243851933 0.0218130206 0.0661723247 0.0528066505 0.0314639801 0.2197193173 0.0528238467 -0.0003953019 0.2729354710 0.0424516021 0.0017414582 0.1685205048 0.0533597385 0.0018893809 0.1159631397 0.0391505423 0.0296140306 0.4375646642 0.0238645107 0.0004478055 0.3881407166 0.0655381703 0.0077114979 0.4103923069 0.0649320381 0.0138195040 0.4247534467 0.0670865819 0.0030561332 0.3486059567 0.0781305559 0.0066724616 0.1561643846 0.0501196379 0.0002128549 0.4693621909 0.0547086040 0.0075508738 0.1543793698 0.0541818961 0.0354309170 0.0629323401 0.0491282816 0.0350448587 0.1291498560 0.0452286621 0.0292765039 0.0401120865 0.0737277315 0.0119152828 0.1261955984 0.0611689911 0.0415913447 0.1019065947 0.0544908606 0.0185833130 0.1084558286 0.0650560057 0.0128874691 0.0900828682 0.0822596120 0.0192753914 0.0997225394 0.0157009247 0.0092834673 0.1033908589 0.0423707219 0.0227569834 0.2435720726 0.0505582953 -0.0006201320 0.3100016380 0.0484057705 -0.0005042728 0.1959449707 0.0423644303 -0.0002739195 0.1005937403 0.0346716108 0.0255543548 0.3306386503 0.0545513910 -0.0002708539 0.3529579689 0.0741626116 0.0045025130 0.4839644664 0.0726648268
[...]
      <PointData Scalars="smoothLength">
        <DataArray type="Float32" Name="smoothLength" format="ascii">
 0.0065000000 0.0065000000 0.0065000000 0.0065000000 0.0065000000 0.0065000000 0.0065000000 0.0065000000 0.0065000000 0.0065000000 0.0065000000 0.0065000000 0.0065000000 0.0065000000 0.0065000000 0.0065000000 0.0065000000 0.0065000000 0.0065000000 0.0065000000 0.0065000000 0.0065000000 0.0065000000 0.0065000000 0.0065000000 0.0065000000 0.0065000000 0.0065000000 0.0065000000 0.0065000000 0.0065000000 0.0065000000 0.0065000000 0.0065000000 0.0065000000 0.0065000000 0.0065000000 0.0065000000 0.0065000000 0.0065000000 0.0065000000 0.0065000000 0.0065000000 0.0065000000 0.0065000000 0.0065000000 0.0065000000 0.0065000000 0.0065000000 0.0065000000 0.0065000000 0.0065000000 0.0065000000 0.0065000000 0.0065000000 0.0065000000 0.0065000000 0.0065000000 0.0065000000 0.0065000000 0.0065000000 0.0065000000 0.0065000000 0.0065000000 0.0065000000 0.0065000000 0.0065000000 0.0065000000 0.0065000000 0.0065000000 0.0065000000 0.0065000000 0.0065000000 0.0065000000 0.0065000000 0.0065000000 0.0065000000 0.0065000000 0.0065000000 0.0065000000 0.0065000000 0.0065000000 0.0065000000 0.0065000000 0.0065000000 0.0065000000 0.0065000000 0.0065000000 0.0065000000 0.0065000000 0.0065000000 0.0065000000 0.0065000000 0.0065000000 0.0065000000 0.0065000000 0.0065000000 0.0065000000 0.0065000000 0.0065000000 0.0065000000 0.0065000000 0.0065000000 0.0065000000 0.0065000000 0.0065000000 0.0065000000 0.0065000000 0.0065000000 0.0065000000 0.0065000000 0.0065000000 0.0065000000 0.0065000000 0.0065000000 0.0065000000 0.0065000000 0.0065000000 0.0065000000 0.0065000000 0.0065000000 0.0065000000 0.0065000000 0.0065000000 0.0065000000 0.0065000000 0.0065000000 0.0065000000 0.0065000000 0.0065000000 0.0065000000 0.0065000000 0.0065000000 0.0065000000 0.0065000000 0.0065000000 0.0065000000 0.0065000000 0.0065000000 0.0065000000 0.0065000000 0.0065000000 0.0065000000 0.0065000000 0.0065000000 0.0065000000 0.0065000000 0.0065000000 0.0065000000 0.0065000000 0.0065000000 0.0065000000 0.0065000000 0.0065000000 0.0065000000 0.0065000000 0.0065000000 0.0065000000 0.0065000000 0.0065000000 0.0065000000 0.0065000000 0.0065000000 0.0065000000 0.0065000000 0.0065000000 0.0065000000 0.0065000000 0.0065000000 0.0065000000 0.0065000000 0.0065000000 0.0065000000 0.0065000000 0.0065000000 0.0065000000 0.0065000000 0.0065000000 0.0065000000 0.0065000000 0.0065000000 0.0065000000 0.0065000000 0.0065000000 0.0065000000 0.0065000000 0.0065000000 0.0065000000 0.0065000000 0.0065000000 0.0065000000 0.0065000000 0.0065000000 0.0065000000 0.0065000000 0.0065000000 0.0065000000 0.0065000000 0.0065000000 0.0065000000 0.0065000000 0.0065000000 0.0065000000 0.0065000000 0.0065000000 0.0065000000 0.0065000000 0.0065000000 0.0065000000 0.0065000000 0.0065000000 0.0065000000 0.0065000000 0.0065000000 0.0065000000 0.0065000000 0.0065000000 0.0065000000 0.0065000000 0.0065000000 0.0065000000 0.0065000000 0.0065000000 0.0065000000 0.0065000000 0.0065000000 0.0065000000 0.0065000000 0.0065000000 0.0065000000 0.0065000000 0.0065000000 0.0065000000 0.0065000000 0.0065000000 0.0065000000 0.0065000000 0.0065000000 0.0065000000 0.0065000000 0.0065000000 0.0065000000 0.0065000000 0.0065000000 0.0065000000 0.0065000000 0.0065000000 0.0065000000 0.0065000000 0.0065000000 0.0065000000 0.0065000000 0.0065000000 0.0065000000 0.0065000000 0.0065000000 0.0065000000 0.0065000000 0.0065000000 0.0065000000 0.0065000000 0.0065000000 0.0065000000 0.0065000000 0.0065000000 0.0065000000 0.0065000000 0.0065000000 0.0065000000 0.0065000000 0.0065000000 0.0065000000 0.0065000000 0.0065000000 0.0065000000 0.0065000000 0.0065000000 0.0065000000 0.0065000000 0.0065000000 0.0065000000 0.0065000000 0.0065000000 0.0065000000 0.0065000000 0.0065000000 0.0065000000 0.0065000000 0.0065000000 0.0065000000 0.0065000000 0.0065000000 0.0065000000 0.0065000000 0.0065000000 0.0065000000 0.0065000000 0.0065000000 0.0065000000 0.0065000000 0.0065000000 0.0065000000 0.0065000000 0.0065000000 0.0065000000 0.0065000000 0.0065000000 0.0065000000 0.0065000000 0.0065000000 0.0065000000 0.0065000000 0.0065000000 0.0065000000 0.0065000000 0.0065000000 0.0065000000 0.0065000000 0.0065000000 0.0065000000 0.0065000000 0.0065000000 0.0065000000 0.0065000000 0.0065000000 0.0065000000 0.0065000000 0.0065000000 0.0065000000 0.0065000000 0.0065000000 0.0065000000 0.0065000000 0.0065000000 0.0065000000 0.0065000000 0.0065000000 0.0065000000 0.0065000000 0.0065000000 0.0065000000 0.0065000000 0.0065000000 0.0065000000 0.0065000000 0.0065000000 0.0065000000 0.0065000000 0.0065000000 0.0065000000 0.0065000000 0.0065000000 0.0065000000 0.0065000000 0.0065000000 0.0065000000 0.0065000000 0.0065000000 0.0065000000 0.0065000000 0.0065000000 0.0065000000 0.0065000000 0.0065000000 0.0065000000 0.0065000000 0.0065000000 0.0065000000 0.0065000000 0.0065000000 0.0065000000 0.0065000000 0.0065000000 0.0065000000 0.0065000000 0.0065000000 0.0065000000 0.0065000000 0.0065000000 0.0065000000 0.0065000000 0.0065000000 0.0065000000 0.0065000000 0.0065000000 0.0065000000 0.0065000000 0.0065000000 0.0065000000 0.0065000000 0.0065000000 0.0065000000 0.0065000000 0.0065000000 0.0065000000 0.0065000000 0.0065000000 0.0065000000 0.0065000000 0.0065000000 0.0065000000 0.0065000000 0.0065000000 0.0065000000 0.0065000000 0.0065000000 0.0065000000 0.0065000000 0.0065000000 0.0065000000 0.0065000000 0.0065000000 0.0065000000 0.0065000000 0.0065000000 0.0065000000 0.0065000000 0.0065000000 0.0065000000 0.0065000000 0.0065000000 0.0065000000 0.0065000000 0.0065000000 0.0065000000 0.0065000000 0.0065000000 0.0065000000 0.0065000000 0.0065000000 0.0065000000 0.0065000000 0.0065000000 0.0065000000 0.0065000000 0.0065000000 0.0065000000 0.0065000000 0.0065000000 0.0065000000 0.0065000000 0.0065000000 0.0065000000 0.0065000000 0.0065000000 0.0065000000 0.0065000000 0.0065000000 0.0065000000 0.0065000000 0.0065000000 0.0065000000 0.0065000000 0.0065000000 0.0065000000 0.0065000000 0.0065000000 0.0065000000 0.0065000000 0.0065000000 0.0065000000 0.0065000000 0.0065000000 0.0065000000 0.0065000000 0.0065000000 0.0065000000 0.0065000000 0.0065000000 0.0065000000 0.0065000000 0.0065000000 0.0065000000 0.0065000000 0.0065000000 0.0065000000 0.0065000000 0.0065000000 0.0065000000 0.0065000000 0.0065000000 0.0065000000 0.0065000000 0.0065000000 0.0065000000 0.0065000000 0.0065000000 0.0065000000 0.0065000000 0.0065000000 0.0065000000 0.0065000000 0.0065000000 0.0065000000 0.0065000000 0.0065000000 0.0065000000 0.0065000000 0.0065000000 0.0065000000 0.0065000000 0.0065000000 0.0065000000 0.0065000000 0.0065000000 0.0065000000 0.0065000000 0.0065000000 0.0065000000 0.0065000000 0.0065000000 0.0065000000 0.0065000000 0.0065000000 0.0065000000 0.0065000000 0.0065000000 0.0065000000 0.0065000000 0.0065000000 0.0065000000 0.0065000000 0.0065000000 0.0065000000 0.0065000000 0.0065000000 0.0065000000 0.0065000000 0.0065000000 0.0065000000 0.0065000000 0.0065000000 0.0065000000 0.0065000000 0.0065000000 0.0065000000 0.0065000000 0.0065000000 0.0065000000 0.0065000000 0.0065000000 0.0065000000 0.0065000000 0.0065000000 0.0065000000 0.0065000000 0.0065000000 0.0065000000 0.0065000000 0.0065000000 0.0065000000 0.0065000000 0.0065000000 0.0065000000 0.0065000000 0.0065000000 0.0065000000 0.0065000000 0.0065000000 0.0065000000 0.0065000000 0.0065000000 0.0065000000 0.0065000000 0.0065000000 0.0065000000 0.0065000000 0.0065000000 0.0065000000 0.0065000000 0.0065000000 0.0065000000 0.0065000000 0.0065000000 0.0065000000 0.0065000000 0.0065000000 0.0065000000 0.0065000000 0.0065000000 0.0065000000 0.0065000000 0.0065000000 0.0065000000 0.0065000000 0.0065000000 0.0065000000 0.0065000000 0.0065000000 0.0065000000 0.0065000000 0.0065000000 0.0065000000 0.0065000000 0.0065000000 0.0065000000 0.0065000000 0.0065000000 0.0065000000 0.0065000000 0.0065000000 0.0065000000 0.0065000000 0.0065000000 0.0065000000 0.0065000000 0.0065000000 0.0065000000 0.0065000000 0.0065000000 0.0065000000 0.0065000000 0.0065000000 0.0065000000 0.0065000000 0.0065000000 0.0065000000 0.0065000000 0.0065000000 0.0065000000 0.0065000000 0.0065000000 0.0065000000 0.0065000000 0.0065000000 0.0065000000 0.0065000000 0.0065000000 0.0065000000 0.0065000000 0.0065000000 0.0065000000 0.0065000000 0.0065000000 0.0065000000 0.0065000000 0.0065000000 0.0065000000 0.0065000000 0.0065000000 0.0065000000 0.0065000000 0.0065000000 0.0065000000 0.0065000000 0.0065000000 0.0065000000 0.0065000000 0.0065000000 0.0065000000 0.0065000000 0.0065000000 0.0065000000 0.0065000000 0.0065000000 0.0065000000 0.0065000000 0.0065000000 0.0065000000 0.0065000000 0.0065000000 0.0065000000 0.0065000000 0.0065000000 0.0065000000 0.0065000000 0.0065000000 0.0065000000 0.0065000000 0.0065000000 0.0065000000 0.0065000000 0.0065000000 0.0065000000 0.0065000000 0.0065000000 0.0065000000 0.0065000000 0.0065000000 0.0065000000 0.0065000000 0.0065000000 0.0065000000 0.0065000000 0.0065000000 0.0065000000 0.0065000000 0.0065000000 0.0065000000 0.0065000000 0.0065000000 0.0065000000 0.0065000000 0.0065000000 0.0065000000 0.0065000000 0.0065000000 0.0065000000 0.0065000000 0.0065000000 0.0065000000 0.0065000000 0.0065000000 0.0065000000 0.0065000000 0.0065000000 0.0065000000 0.0065000000 0.0065000000 0.0065000000 0.0065000000 0.0065000000 0.0065000000 0.0065000000 0.0065000000 0.0065000000 0.0065000000 0.0065000000 0.0065000000 0.0065000000 0.0065000000 0.0065000000 0.0065000000 0.0065000000 0.0065000000 0.0065000000 0.0065000000 0.0065000000 0.0065000000 0.0065000000 0.0065000000 0.0065000000 0.0065000000 0.0065000000 0.0065000000 0.0065000000 0.0065000000 0.0065000000 0.0065000000 0.0065000000 0.0065000000 0.0065000000 0.0065000000 0.0065000000 0.0065000000 0.0065000000 0.0065000000 0.0065000000 0.0065000000 0.0065000000 0.0065000000 0.0065000000 0.0065000000 0.0065000000 0.0065000000 0.0065000000 0.0065000000 0.0065000000 0.0065000000 0.0065000000 0.0065000000 0.0065000000 0.0065000000 0.0065000000 0.0065000000 0.0065000000 0.0065000000 0.0065000000 0.0065000000 0.0065000000 0.0065000000 0.0065000000 0.0065000000 0.0065000000 0.0065000000 0.0065000000 0.0065000000 0.0065000000 0.0065000000 0.0065000000 0.0065000000 0.0065000000 0.0065000000 0.0065000000 0.0065000000 0.0065000000 0.0065000000 0.0065000000 0.0065000000 0.0065000000 0.0065000000 0.0065000000 0.0065000000 0.0065000000 0.0065000000 0.0065000000 0.0065000000 0.0065000000 0.0065000000 0.0065000000 0.0065000000 0.0065000000 0.0065000000 0.0065000000 0.0065000000 0.0065000000 0.0065000000 0.0065000000 0.0065000000 0.0065000000 0.0065000000 0.0065000000 0.0065000000 0.0065000000 0.0065000000 0.0065000000 0.0065000000 0.0065000000 0.0065000000 0.0065000000 0.0065000000 0.0065000000 0.0065000000 0.0065000000 0.0065000000 0.0065000000 0.0065000000 0.0065000000 0.0065000000 0.0065000000 0.0065000000 0.0065000000 0.0065000000 0.0065000000 0.0065000000 0.0065000000 0.0065000000 0.0065000000 0.0065000000 0.0065000000 0.0065000000 0.0065000000 0.0065000000 0.0065000000 0.0065000000 0.0065000000 0.0065000000 0.0065000000 0.0065000000 0.0065000000 0.0065000000 0.0065000000 0.0065000000 0.0065000000 0.0065000000 0.0065000000 0.0065000000 0.0065000000 0.0065000000 0.0065000000 0.0065000000 0.0065000000 0.0065000000 0.0065000000 0.0065000000 0.0065000000 0.0065000000 0.0065000000 0.0065000000 0.0065000000 0.0065000000 0.0065000000 0.0065000000 0.0065000000 0.0065000000 0.0065000000 0.0065000000 0.0065000000 0.0065000000 0.0065000000 0.0065000000 0.0065000000 0.0065000000 0.0065000000 0.0065000000 0.0065000000 0.0065000000 0.0065000000 0.0065000000 0.0065000000 0.0065000000 0.0065000000 0.0065000000 0.0065000000 0.0065000000 0.0065000000 0.0065000000 0.0065000000 0.0065000000 0.0065000000 0.0065000000 0.0065000000 0.0065000000 0.0065000000 0.0065000000 0.0065000000 0.0065000000 0.0065000000 0.0065000000 0.0065000000 0.0065000000 0.0065000000 0.0065000000 0.0065000000 0.0065000000 0.0065000000 0.0065000000 0.0065000000 0.0065000000 0.0065000000 0.0065000000 0.0065000000 0.0065000000 0.0065000000 0.0065000000 0.0065000000 0.0065000000 0.0065000000 0.0065000000 0.0065000000 0.0065000000 0.0065000000 0.0065000000 0.0065000000 0.0065000000 0.0065000000 0.0065000000 0.0065000000 0.0065000000 0.0065000000 0.0065000000 0.0065000000 0.0065000000 0.0065000000 0.0065000000 0.0065000000 0.0065000000 0.0065000000 0.0065000000 0.0065000000 0.0065000000 0.0065000000 0.0065000000 0.0065000000 0.0065000000 0.0065000000 0.0065000000 0.0065000000 0.0065000000 0.0065000000 0.0065000000 0.0065000000 0.0065000000 0.0065000000 0.0065000000 0.0065000000 0.0065000000 0.0065000000 0.0065000000 0.0065000000 0.0065000000 0.0065000000 0.0065000000 0.0065000000 0.0065000000 0.0065000000 0.0065000000 0.0065000000 0.0065000000 0.0065000000 0.0065000000 0.0065000000 0.0065000000 0.0065000000 0.0065000000 0.0065000000 0.0065000000 0.0065000000 0.0065000000 0.0065000000 0.0065000000 0.0065000000 0.0065000000 0.0065000000 0.0065000000 0.0065000000 0.0065000000 0.0065000000 0.0065000000 0.0065000000 0.0065000000 0.0065000000 0.0065000000 0.0065000000 0.0065000000 0.0065000000 0.0065000000 0.0065000000 0.0065000000 0.0065000000 0.0065000000 0.0065000000 0.0065000000 0.0065000000 0.0065000000 0.0065000000 0.0065000000 0.0065000000 0.0065000000 0.0065000000 0.0065000000 0.0065000000 0.0065000000 0.0065000000 0.0065000000 0.0065000000 0.0065000000 0.0065000000 0.0065000000 0.0065000000 0.0065000000 0.0065000000 0.0065000000 0.0065000000 0.0065000000 0.0065000000 0.0065000000 0.0065000000 0.0065000000 0.0065000000 0.0065000000 0.0065000000 0.0065000000 0.0065000000 0.0065000000 0.0065000000 0.0065000000 0.0065000000 0.0065000000 0.0065000000 0.0065000000 0.0065000000 0.0065000000 0.0065000000 0.0065000000 0.0065000000 0.0065000000 0.0065000000 0.0065000000 0.0065000000 0.0065000000 0.0065000000 0.0065000000 0.0065000000 0.0065000000 0.0065000000 0.0065000000 0.0065000000 0.0065000000 0.0065000000 0.0065000000 0.0065000000 0.0065000000 0.0065000000 0.0065000000 0.0065000000 0.0065000000 0.0065000000 0.0065000000 0.0065000000 0.0065000000 0.0065000000 0.0065000000 0.0065000000 0.0065000000 0.0065000000 0.0065000000 0.0065000000 0.0065000000 0.0065000000 0.0065000000 0.0065000000 0.0065000000 0.0065000000 0.0065000000 0.0065000000 0.0065000000 0.0065000000 0.0065000000 0.0065000000 0.0065000000 0.0065000000 0.0065000000 0.0065000000 0.0065000000 0.0065000000 0.0065000000 0.0065000000 0.0065000000 0.0065000000 0.0065000000 0.0065000000 0.0065000000 0.0065000000 0.0065000000 0.0065000000 0.0065000000 0.0065000000 0.0065000000 0.0065000000 0.0065000000 0.0065000000 0.0065000000 0.0065000000 0.0065000000 0.0065000000 0.0065000000 0.0065000000 0.0065000000 0.0065000000 0.0065000000 0.0065000000 0.0065000000 0.0065000000 0.0065000000 0.0065000000 0.0065000000 0.0065000000 0.0065000000 0.0065000000 0.0065000000 0.0065000000 0.0065000000 0.0065000000 0.0065000000 0.0065000000 0.0065000000 0.0065000000 0.0065000000 0.0065000000 0.0065000000 0.0065000000 0.0065000000 0.0065000000 0.0065000000 0.0065000000 0.0065000000 0.0065000000 0.0065000000 0.0065000000 0.0065000000 0.0065000000 0.0065000000 0.0065000000 0.0065000000 0.0065000000 0.0065000000 0.0065000000 0.0065000000 0.0065000000 0.0065000000 0.0065000000 0.0065000000 0.0065000000 0.0065000000 0.0065000000 0.0065000000 0.0065000000 0.0065000000 0.0065000000 0.0065000000 0.0065000000 0.0065000000 0.0065000000 0.0065000000 0.0065000000 0.0065000000 0.0065000000 0.0065000000 0.0065000000 0.0065000000 0.0065000000 0.0065000000 0.0065000000 0.0065000000 0.0065000000 0.0065000000 0.0065000000 0.0065000000 0.0065000000 0.0065000000 0.0065000000 0.0065000000 0.0065000000 0.0065000000 0.0065000000 0.0065000000 0.0065000000 0.0065000000 0.0065000000 0.0065000000 0.0065000000 0.0065000000 0.0065000000 0.0065000000 0.0065000000 0.0065000000 0.0065000000 0.0065000000 0.0065000000 0.0065000000 0.0065000000 0.0065000000 0.0065000000 0.0065000000 0.0065000000 0.0065000000 0.0065000000 0.0065000000 0.0065000000 0.0065000000 0.0065000000 0.0065000000 0.0065000000 0.0065000000 0.0065000000 0.0065000000 0.0065000000 0.0065000000 0.0065000000 0.0065000000 0.0065000000 0.0065000000 0.0065000000 0.0065000000 0.0065000000 0.0065000000 0.0065000000 0.0065000000 0.0065000000 0.0065000000 0.0065000000 0.0065000000 0.0065000000 0.0065000000 0.0065000000 0.0065000000 0.0065000000 0.0065000000 0.0065000000 0.0065000000 0.0065000000 0.0065000000 0.0065000000 0.0065000000 0.0065000000 0.0065000000 0.0065000000 0.0065000000 0.0065000000 0.0065000000 0.0065000000 0.0065000000 0.0065000000 0.0065000000 0.0065000000 0.0065000000 0.0065000000 0.0065000000 0.0065000000 0.0065000000 0.0065000000 0.0065000000 0.0065000000 0.0065000000 0.0065000000 0.0065000000 0.0065000000 0.0065000000 0.0065000000 0.0065000000 0.0065000000 0.0065000000 0.0065000000 0.0065000000 0.0065000000 0.0065000000 0.0065000000 0.0065000000 0.0065000000 0.0065000000 0.0065000000 0.0065000000 0.0065000000 0.0065000000 0.0065000000 0.0065000000 0.0065000000 0.0065000000 0.0065000000 0.0065000000 0.0065000000 0.0065000000 0.0065000000 0.0065000000 0.0065000000 0.0065000000 0.0065000000 0.0065000000 0.0065000000 0.0065000000 0.0065000000 0.0065000000 0.0065000000 0.0065000000 0.0065000000 0.0065000000 0.0065000000 0.0065000000 0.0065000000 0.0065000000 0.0065000000 0.0065000000 0.0065000000 0.0065000000 0.0065000000 0.0065000000 0.0065000000 0.0065000000 0.0065000000 0.0065000000 0.0065000000 0.0065000000 0.0065000000 0.0065000000 0.0065000000 0.0065000000 0.0065000000 0.0065000000 0.0065000000 0.0065000000 0.0065000000 0.0065000000 0.0065000000 0.0065000000 0.0065000000 0.0065000000 0.0065000000 0.0065000000 0.0065000000 0.0065000000 0.0065000000 0.0065000000 0.0065000000 0.0065000000 0.0065000000 0.0065000000 0.0065000000 0.0065000000 0.0065000000 0.0065000000 0.0065000000 0.0065000000 0.0065000000 0.0065000000 0.0065000000 0.0065000000 0.0065000000 0.0065000000 0.0065000000 0.0065000000 0.0065000000 0.0065000000 0.0065000000 0.0065000000 0.0065000000 0.0065000000 0.0065000000 0.0065000000 0.0065000000 0.0065000000 0.0065000000 0.0065000000 0.0065000000 0.0065000000 0.0065000000 0.0065000000 0.0065000000 0.0065000000 0.0065000000 0.0065000000 0.0065000000 0.0065000000 0.0065000000 0.0065000000 0.0065000000 0.0065000000 0.0065000000 0.0065000000 0.0065000000 0.0065000000 0.0065000000 0.0065000000 0.0065000000 0.0065000000 0.0065000000 0.0065000000 0.0065000000 0.0065000000 0.0065000000 0.0065000000 0.0065000000 0.0065000000 0.0065000000 0.0065000000 0.0065000000 0.0065000000 0.0065000000 0.0065000000 0.0065000000 0.0065000000 0.0065000000 0.0065000000 0.0065000000 0.0065000000 0.0065000000 0.0065000000 0.0065000000 0.0065000000 0.0065000000 0.0065000000 0.0065000000 0.0065000000 0.0065000000 0.0065000000 0.0065000000 0.0065000000 0.0065000000 0.0065000000 0.0065000000 0.0065000000 0.0065000000 0.0065000000 0.0065000000 0.0065000000 0.0065000000 0.0065000000 0.0065000000 0.0065000000 0.0065000000 0.0065000000 0.0065000000 0.0065000000 0.0065000000 0.0065000000 0.0065000000 0.0065000000 0.0065000000 0.0065000000 0.0065000000 0.0065000000 0.0065000000 0.0065000000 0.0065000000 0.0065000000 0.0065000000 0.0065000000 0.0065000000 0.0065000000 0.0065000000 0.0065000000 0.0065000000 0.0065000000 0.0065000000 0.0065000000 0.0065000000 0.0065000000 0.0065000000 0.0065000000 0.0065000000 0.0065000000 0.0065000000 0.0065000000 0.0065000000 0.0065000000 0.0065000000 0.0065000000 0.0065000000 0.0065000000 0.0065000000 0.0065000000 0.0065000000 0.0065000000 0.0065000000 0.0065000000 0.0065000000 0.0065000000 0.0065000000 0.0065000000 0.0065000000 0.0065000000 0.0065000000 0.0065000000 0.0065000000 0.0065000000 0.0065000000 0.0065000000 0.0065000000 0.0065000000 0.0065000000 0.0065000000 0.0065000000 0.0065000000 0.0065000000 0.0065000000 0.0065000000 0.0065000000 0.0065000000 0.0065000000 0.006500000