<?xml version="1.0"?>
<VTKFile type="UnstructuredGrid" version="0.1" byte_order="LittleEndian">
  <UnstructuredGrid>
    <FieldData>
      <DataArray type="Float32" Name="TIME"  NumberOfTuples="1" format="ascii"> 1.2491396451 </DataArray>
      <DataArray type="Int32"   Name="STEP"  NumberOfTuples="1" format="ascii"> 16750 </DataArray>
    </FieldData>
    <Piece NumberOfPoints="18081" NumberOfCells="18081">
      <Points>
        <DataArray type="Float32" NumberOfComponents="3" format="ascii">
 0.0012553357 0.0007378709 0.0002248769 0.0056152362 -0.0000358942 0.0139166005 0.0204993019 0.0105023701 -0.0005229696 0.0379579920 0.0500691919 0.0217632081 0.0180456787 0.0170120987 0.0021876180 0.1151054580 -0.0000241318 0.0117298178 0.3380005087 -0.0004275611 0.0007547356 0.3787526806 0.0069690558 0.0159445213 0.4137895614 0.0032357817 0.0106984709 0.3520117773 0.0108680939 0.0141336772 0.4614903650 0.0122132957 0.0142034235 0.4635684236 0.0023458314 0.0097568725 0.4533478065 0.0161619031 0.0164325213 0.4300188728 0.0440356153 0.0172025835 0.3869412903 0.0247157148 0.0177620792 0.3461193108 0.0229282054 0.0153013514 0.4329763861 0.0019180822 0.0056217342 0.2581818864 0.0342057833 0.0114010946 0.1503334211 0.0415407621 0.0193043071 0.1602483126 0.0536338065 0.0190201695 0.4711164357 0.0044373178 0.0206219990 0.0069432131 0.0083881440 0.0172225618 0.0121635703 -0.0003213652 0.0185795157 0.0408778500 0.0424395035 0.0076411692 0.0429006223 0.0376908560 0.0083756157 0.1260315135 0.0053697797 0.0137691013 0.3638921361 0.0006540209 0.0100072241 0.3980421963 0.0026955893 0.0110694171 0.3833639578 0.0075878903 0.0067457658 0.2939067238 0.0061184172 0.0119168960 0.4354160300 0.0033753875 0.0113499390 0.4253067746 0.0362927746 0.0154932332 0.4887068663 0.0165969574 0.0041462733 0.4313474736 0.0330407365 0.0150724201 0.4182385184 0.0014894977 0.0154216099 0.3958325449 0.0175319414 0.0174627780 0.3913348325 0.0075168664 0.0194713051 0.3910259980 0.0169897467 0.0177468140 0.0913440911 0.0328976385 0.0168812836 0.0847669871 0.0188821471 0.0185712846 0.0947321429 0.0391919727 0.0189341579 0.2190162074 0.0456262118 0.0125661652 0.0136545187 0.0204626229 0.0021045209 0.0164483288 0.0014049272 -0.0004702509 0.0389453743 0.0382150624 -0.0000218721 0.0272671276 0.0579219753 0.0287328397 0.1727821886 0.0120073279 0.0033892472 0.2622158685 0.0083299033 0.0004787671 0.3978165164 -0.0004326204 -0.0002954979 0.4439288921 0.0126750576 -0.0009703992 0.4582734501 0.0148009826 0.0010101211 0.4010481491 0.0105902015 0.0041664121 0.4222412435 0.0426490540 0.0165620442 0.4217120902 0.0375028526 0.0082386523 0.4572385879 0.0581537649 0.0208894747 0.4410658911 0.0240019649 0.0059954606 0.3601112397 0.0244380105 0.0108140355 0.3976896012 0.0132296296 0.0150493471 0.4340126687 0.0165450937 0.0154288447 0.0383161946 0.0144162788 0.0207996547 0.4385302412 0.0509313719 0.0183993023 0.4986637366 0.0165089602 -0.0002147469 0.4509171278 0.0453283522 0.0147397582 0.0311046150 0.0346718929 0.0004904338 0.0181210136 0.0232596325 0.0094629311 0.0771332118 0.0444721451 -0.0000984142 0.0345375225 0.0355162452 0.0095947248 0.1910145909 -0.0003056500 0.0001426741 0.3458801929 0.0051890330 0.0039960833 0.3735962034 0.0073747105 0.0035070399 0.2259240921 0.0018500715 0.0093318219 0.1498618161 0.0105859367 0.0176367652 0.4432753541 0.0073711786 0.0068868000 0.4333644868 0.0522891821 0.0122654840 0.4295570721 0.0545807896 0.0141645902 0.4492515278 0.0221952465 0.0135534551 0.3295932470 0.0133670434 0.0084334081 0.2665017547 0.0188268198 0.0100141999 0.4081042693 0.0398766266 0.0160202997 0.1831153305 0.0363432787 0.0197271679 0.0520797040 0.0200687553 0.0126342396 0.0187583099 0.0071591299 0.0056961901 0.0428787102 0.0090802322 0.0233775045 0.4858342777 0.0724694427 0.0120995914 0.0216535882 0.0348770432 0.0114776364 0.0448938257 0.0466693741 0.0080146899 0.1003800155 0.0408337060 0.0005199404 0.1523845852 0.0027729513 -0.0004226551 0.1674276784 0.0085764976 0.0014518019 0.3496404256 0.0010162676 0.0094954580 0.4209762674 0.0108515890 -0.0003619974 0.3450467300 0.0127737315 0.0091608352 0.2101176388 0.0004824003 0.0099216323 0.3440357379 0.0167119250 0.0105866665 0.4401661889 0.0374692435 0.0019005757 0.4399389193 0.0502507154 0.0139350248 0.4241053965 0.0552740096 0.0168807655 0.3961867201 0.0436719814 0.0142368863 0.2839616251 0.0387329941 0.0117334085 0.3146514118 0.0472033045 0.0127597955 0.1351589175 0.0384343010 0.0192241065 0.1359254244 0.0254584041 0.0198861233 0.2823064191 0.0507218686 0.0132841542 0.1386750470 0.0578034652 0.0208929177 0.4306013797 0.0556371600 0.0184904792 0.0350674375 0.0415819286 0.0000166810 0.0406259521 0.0435416628 -0.0004388068 0.0931456872 0.0390378633 -0.0008833899 0.0807934155 0.0001386048 0.0011897122 0.2050451511 0.0046494158 0.0002804403 0.4071873157 0.0063494785 -0.0003938182 0.3048981672 0.0207238998 0.0092365823 0.2548589958 0.0163095653 0.0088667865 0.2279928676 0.0187388554 0.0095118523 0.3545367725 0.0171517632 0.0065204652 0.4330547170 0.0388037846 0.0065623599 0.4070194316 0.0458638852 0.0048287965 0.4293056846 0.0583980853 0.0100213980 0.4669127059 0.0783116282 0.0215955235 0.3441859289 0.0469611275 0.0130755944 0.4224652706 0.0423592679 0.0113435939 0.1955446417 0.0365556679 0.0169337087 0.0002974118 0.0125428780 0.0375513794 0.1908527842 0.0454141934 0.0131979651 0.1333204455 0.0524837589 0.0198234338 0.4609120851 0.0443415807 0.0210485720 0.0381445898 0.0470812604 0.0056912682 0.0571903834 0.0507709410 0.0040450744 0.0909398925 0.0479707378 0.0018557962 0.1707857204 0.0130499573 0.0000422383 0.3037983110 0.0031787910 0.0042326162 0.3648235060 0.0104247931 -0.0002677221 0.3256595055 0.0244447271 0.0039862805 0.3886676265 0.0101858018 0.0041025314 0.1739210435 0.0178730181 0.0121958494 0.3407190421 0.0243142787 0.0071902240 0.4035625438 0.0451670023 0.0082912093 0.4228601982 0.0296252118 0.0070553885 0.3671763035 0.0575313421 0.0099315122 0.4451170193 0.0693670632 0.0009021325 0.3312437126 0.0289857600 0.0081851819 0.3236095999 0.0576361410 0.0121411143 0.0688001090 0.0124638851 0.0055746827 0.0060913937 0.0093372134 0.0363636174 0.0338309187 0.0198184955 0.0035197542 0.0099612029 0.0135742701 0.0231506405 0.2457128115 0.0461370652 0.0111776562 0.0210829110 0.0402598963 0.0056207631 0.0610229424 0.0516144852 0.0016020735 0.1071011499 0.0569825382 -0.0008097576 0.1547527225 0.0124019364 0.0003234941 0.1899917568 0.0034455910 0.0015341296 0.3367010886 0.0027400202 0.0001529042 0.3670864970 0.0267920638 -0.0011814778 0.2166951604 0.0379533354 0.0108705098 0.3723780071 0.0219924653 0.0046712704 0.1911720036 0.0133578506 0.0030674771 0.4104736349 0.0451730108 0.0073112112 0.4667943519 0.0762306733 -0.0008647978 0.3385607757 0.0467543512 0.0078102637 0.4228650549 0.0551616514 0.0054759761 0.3388169010 0.0330488931 0.0109800431 0.2382017241 0.0313987091 0.0090457795 0.2339849442 0.0522546180 0.0098836026 0.0725028105 0.0168426655 0.0129251135 0.2363887661 0.0451047507 0.0079894632 0.1876899946 0.0521918075 0.0227903208 0.0150892797 0.0042599253 0.0329504468 0.0304141664 0.0431624801 -0.0005622682 0.0449135600 0.0560308373 0.0123413098 0.1176313889 0.0540455371 -0.0000585223 0.1488949698 0.0121078459 0.0039914596 0.3040833302 0.0091452986 0.0002800992 0.3511822663 0.0104259805 -0.0004034799 0.3437640679 0.0226823325 -0.0003394101 0.3011283255 0.0291344285 0.0049713958 0.1292943981 0.0443471162 0.0189713334 0.0954668502 0.0147504794 0.0043673937 0.4055232726 0.0472315988 -0.0004074625 0.4171406130 0.0508485339 0.0061336013 0.4047387037 0.0544547859 0.0104409087 0.4484189293 0.0485642372 0.0207539954 0.3603617679 0.0621725403 0.0120496044 0.4429154999 0.0619396435 0.0220875706 0.1890979526 0.0630265484 0.0224613207 0.1018447542 0.0123918711 0.0078945282 0.0561649605 0.0347434094 0.0136767725 0.0954895980 0.0475843433 0.0189579632 0.0331494459 0.0159863814 0.0234980506 0.0230689282 0.0431068781 0.0089485201 0.0418689787 0.0560216056 -0.0001766601 0.0705534005 0.0648394673 -0.0003977970 0.1546058950 0.0176396026 -0.0002444214 0.2859075960 0.0158658436 0.0064830339 0.3242767807 0.0127077411 0.0046094501 0.3318086670 0.0217684661 0.0011556693 0.3622157166 0.0250124461 0.0026256305 0.3441305686 0.0266334771 0.0043967494 0.2642760470 0.0439465590 0.0064634582 0.3954609784 0.0322996399 0.0093521461 0.4910581927 0.0662295441 0.0039052556 0.3853176021 0.0574428174 0.0135534115 0.3674849834 0.0210440300 0.0090678193 0.2612500416 0.0519772106 0.0113479590 0.2596110252 0.0438441425 0.0035834629 0.2151380688 0.0622418057 0.0113919209 0.1292039550 0.0682398595 0.0211678080 0.3708536137 0.0649440458 0.0130881959 0.0736985996 0.0471473228 0.0187936103 0.4855426878 0.0627957491 -0.0014780906 0.0267895294 0.0462336383 0.0056184912 0.0420425669 0.0612507284 -0.0001427319 0.0866417308 0.0547168544 0.0032232044 0.1644278394 0.0240535388 0.0031953704 0.1873927739 0.0274457241 0.0071977531 0.3328569877 0.0142245549 0.0008663203 0.3406883324 0.0298887537 0.0028194152 0.3866587846 0.0293352498 -0.0005844440 0.0852196051 0.0400144653 0.0165967857 0.1731770932 0.0423706472 -0.0001483716 0.4841289504 0.0497355948 -0.0004407593 0.5011311242 0.0734581260 -0.0008319797 0.3596555248 0.0618330921 0.0080537229 0.4773235973 0.0646506926 0.0111166516 0.4057460749 0.0696517931 0.0156705429 0.1876516821 0.0636968083 0.0117271295 0.1827126279 0.0539883150 0.0176061690 0.1129420162 0.0556868097 0.0080270606 0.2112346862 0.0643785421 0.0079164595 0.1119733924 0.0658566866 0.0216772880 0.4542317793 0.0677865233 0.2017537311 0.0371818822 0.0469132785 -0.0004477924 0.0343085783 0.0630451101 0.0115125862 0.0920475847 0.0649993047 0.0013302956 0.1493858463 0.0210111369 -0.0009131154 0.1263807381 0.0338756807 0.0134739563 0.3124710510 0.0280380373 -0.0012007226 0.3463212525 0.0269438312 -0.0008530913 0.2024327747 0.0313917166 -0.0006280495 0.3960026389 0.0312687668 -0.0000464906 0.3282605674 0.0409459838 0.0060764350 0.4668806365 0.0435362026 0.0092045939 0.4405001447 0.0835
[...]
      <PointData Scalars="smoothLength">
        <DataArray type="Float32" Name="smoothLength" format="ascii">
 0.0065000000 0.0065000000 0.0065000000 0.0065000000 0.0065000000 0.0065000000 0.0065000000 0.0065000000 0.0065000000 0.0065000000 0.0065000000 0.0065000000 0.0065000000 0.0065000000 0.0065000000 0.0065000000 0.0065000000 0.0065000000 0.0065000000 0.0065000000 0.0065000000 0.0065000000 0.0065000000 0.0065000000 0.0065000000 0.0065000000 0.0065000000 0.0065000000 0.0065000000 0.0065000000 0.0065000000 0.0065000000 0.0065000000 0.0065000000 0.0065000000 0.0065000000 0.0065000000 0.0065000000 0.0065000000 0.0065000000 0.0065000000 0.0065000000 0.0065000000 0.0065000000 0.0065000000 0.0065000000 0.0065000000 0.0065000000 0.0065000000 0.0065000000 0.0065000000 0.0065000000 0.0065000000 0.0065000000 0.0065000000 0.0065000000 0.0065000000 0.0065000000 0.0065000000 0.0065000000 0.0065000000 0.0065000000 0.0065000000 0.0065000000 0.0065000000 0.0065000000 0.0065000000 0.0065000000 0.0065000000 0.0065000000 0.0065000000 0.0065000000 0.0065000000 0.0065000000 0.0065000000 0.0065000000 0.0065000000 0.0065000000 0.0065000000 0.0065000000 0.0065000000 0.0065000000 0.0065000000 0.0065000000 0.0065000000 0.0065000000 0.0065000000 0.0065000000 0.0065000000 0.0065000000 0.0065000000 0.0065000000 0.0065000000 0.0065000000 0.0065000000 0.0065000000 0.0065000000 0.0065000000 0.0065000000 0.0065000000 0.0065000000 0.0065000000 0.0065000000 0.0065000000 0.0065000000 0.0065000000 0.0065000000 0.0065000000 0.0065000000 0.0065000000 0.0065000000 0.0065000000 0.0065000000 0.0065000000 0.0065000000 0.0065000000 0.0065000000 0.0065000000 0.0065000000 0.0065000000 0.0065000000 0.0065000000 0.0065000000 0.0065000000 0.0065000000 0.0065000000 0.0065000000 0.0065000000 0.0065000000 0.0065000000 0.0065000000 0.0065000000 0.0065000000 0.0065000000 0.0065000000 0.0065000000 0.0065000000 0.0065000000 0.0065000000 0.0065000000 0.0065000000 0.0065000000 0.0065000000 0.0065000000 0.0065000000 0.0065000000 0.0065000000 0.0065000000 0.0065000000 0.0065000000 0.0065000000 0.0065000000 0.0065000000 0.0065000000 0.0065000000 0.0065000000 0.0065000000 0.0065000000 0.0065000000 0.0065000000 0.0065000000 0.0065000000 0.0065000000 0.0065000000 0.0065000000 0.0065000000 0.0065000000 0.0065000000 0.0065000000 0.0065000000 0.0065000000 0.0065000000 0.0065000000 0.0065000000 0.0065000000 0.0065000000 0.0065000000 0.0065000000 0.0065000000 0.0065000000 0.0065000000 0.0065000000 0.0065000000 0.0065000000 0.0065000000 0.0065000000 0.0065000000 0.0065000000 0.0065000000 0.0065000000 0.0065000000 0.0065000000 0.0065000000 0.0065000000 0.0065000000 0.0065000000 0.0065000000 0.0065000000 0.0065000000 0.0065000000 0.0065000000 0.0065000000 0.0065000000 0.0065000000 0.0065000000 0.0065000000 0.0065000000 0.0065000000 0.0065000000 0.0065000000 0.0065000000 0.0065000000 0.0065000000 0.0065000000 0.0065000000 0.0065000000 0.0065000000 0.0065000000 0.0065000000 0.0065000000 0.0065000000 0.0065000000 0.0065000000 0.0065000000 0.0065000000 0.0065000000 0.0065000000 0.0065000000 0.0065000000 0.0065000000 0.0065000000 0.0065000000 0.0065000000 0.0065000000 0.0065000000 0.0065000000 0.0065000000 0.0065000000 0.0065000000 0.0065000000 0.0065000000 0.0065000000 0.0065000000 0.0065000000 0.0065000000 0.0065000000 0.0065000000 0.0065000000 0.0065000000 0.0065000000 0.0065000000 0.0065000000 0.0065000000 0.0065000000 0.0065000000 0.0065000000 0.0065000000 0.0065000000 0.0065000000 0.0065000000 0.0065000000 0.0065000000 0.0065000000 0.0065000000 0.0065000000 0.0065000000 0.0065000000 0.0065000000 0.0065000000 0.0065000000 0.0065000000 0.0065000000 0.0065000000 0.0065000000 0.0065000000 0.0065000000 0.0065000000 0.0065000000 0.0065000000 0.0065000000 0.0065000000 0.0065000000 0.0065000000 0.0065000000 0.0065000000 0.0065000000 0.0065000000 0.0065000000 0.0065000000 0.0065000000 0.0065000000 0.0065000000 0.0065000000 0.0065000000 0.0065000000 0.0065000000 0.0065000000 0.0065000000 0.0065000000 0.0065000000 0.0065000000 0.0065000000 0.0065000000 0.0065000000 0.0065000000 0.0065000000 0.0065000000 0.0065000000 0.0065000000 0.0065000000 0.0065000000 0.0065000000 0.0065000000 0.0065000000 0.0065000000 0.0065000000 0.0065000000 0.0065000000 0.0065000000 0.0065000000 0.0065000000 0.0065000000 0.0065000000 0.0065000000 0.0065000000 0.0065000000 0.0065000000 0.0065000000 0.0065000000 0.0065000000 0.0065000000 0.0065000000 0.0065000000 0.0065000000 0.0065000000 0.0065000000 0.0065000000 0.0065000000 0.0065000000 0.0065000000 0.0065000000 0.0065000000 0.0065000000 0.0065000000 0.0065000000 0.0065000000 0.0065000000 0.0065000000 0.0065000000 0.0065000000 0.0065000000 0.0065000000 0.0065000000 0.0065000000 0.0065000000 0.0065000000 0.0065000000 0.0065000000 0.0065000000 0.0065000000 0.0065000000 0.0065000000 0.0065000000 0.0065000000 0.0065000000 0.0065000000 0.0065000000 0.0065000000 0.0065000000 0.0065000000 0.0065000000 0.0065000000 0.0065000000 0.0065000000 0.0065000000 0.0065000000 0.0065000000 0.0065000000 0.0065000000 0.0065000000 0.0065000000 0.0065000000 0.0065000000 0.0065000000 0.0065000000 0.0065000000 0.0065000000 0.0065000000 0.0065000000 0.0065000000 0.0065000000 0.0065000000 0.0065000000 0.0065000000 0.0065000000 0.0065000000 0.0065000000 0.0065000000 0.0065000000 0.0065000000 0.0065000000 0.0065000000 0.0065000000 0.0065000000 0.0065000000 0.0065000000 0.0065000000 0.0065000000 0.0065000000 0.0065000000 0.0065000000 0.0065000000 0.0065000000 0.0065000000 0.0065000000 0.0065000000 0.0065000000 0.0065000000 0.0065000000 0.0065000000 0.0065000000 0.0065000000 0.0065000000 0.0065000000 0.0065000000 0.0065000000 0.0065000000 0.0065000000 0.0065000000 0.0065000000 0.0065000000 0.0065000000 0.0065000000 0.0065000000 0.0065000000 0.0065000000 0.0065000000 0.0065000000 0.0065000000 0.0065000000 0.0065000000 0.0065000000 0.0065000000 0.0065000000 0.0065000000 0.0065000000 0.0065000000 0.0065000000 0.0065000000 0.0065000000 0.0065000000 0.0065000000 0.0065000000 0.0065000000 0.0065000000 0.0065000000 0.0065000000 0.0065000000 0.0065000000 0.0065000000 0.0065000000 0.0065000000 0.0065000000 0.0065000000 0.0065000000 0.0065000000 0.0065000000 0.0065000000 0.0065000000 0.0065000000 0.0065000000 0.0065000000 0.0065000000 0.0065000000 0.0065000000 0.0065000000 0.0065000000 0.0065000000 0.0065000000 0.0065000000 0.0065000000 0.0065000000 0.0065000000 0.0065000000 0.0065000000 0.0065000000 0.0065000000 0.0065000000 0.0065000000 0.0065000000 0.0065000000 0.0065000000 0.0065000000 0.0065000000 0.0065000000 0.0065000000 0.0065000000 0.0065000000 0.0065000000 0.0065000000 0.0065000000 0.0065000000 0.0065000000 0.0065000000 0.0065000000 0.0065000000 0.0065000000 0.0065000000 0.0065000000 0.0065000000 0.0065000000 0.0065000000 0.0065000000 0.0065000000 0.0065000000 0.0065000000 0.0065000000 0.0065000000 0.0065000000 0.0065000000 0.0065000000 0.0065000000 0.0065000000 0.0065000000 0.0065000000 0.0065000000 0.0065000000 0.0065000000 0.0065000000 0.0065000000 0.0065000000 0.0065000000 0.0065000000 0.0065000000 0.0065000000 0.0065000000 0.0065000000 0.0065000000 0.0065000000 0.0065000000 0.0065000000 0.0065000000 0.0065000000 0.0065000000 0.0065000000 0.0065000000 0.0065000000 0.0065000000 0.0065000000 0.0065000000 0.0065000000 0.0065000000 0.0065000000 0.0065000000 0.0065000000 0.0065000000 0.0065000000 0.0065000000 0.0065000000 0.0065000000 0.0065000000 0.0065000000 0.0065000000 0.0065000000 0.0065000000 0.0065000000 0.0065000000 0.0065000000 0.0065000000 0.0065000000 0.0065000000 0.0065000000 0.0065000000 0.0065000000 0.0065000000 0.0065000000 0.0065000000 0.0065000000 0.0065000000 0.0065000000 0.0065000000 0.0065000000 0.0065000000 0.0065000000 0.0065000000 0.0065000000 0.0065000000 0.0065000000 0.0065000000 0.0065000000 0.0065000000 0.0065000000 0.0065000000 0.0065000000 0.0065000000 0.0065000000 0.0065000000 0.0065000000 0.0065000000 0.0065000000 0.0065000000 0.0065000000 0.0065000000 0.0065000000 0.0065000000 0.0065000000 0.0065000000 0.0065000000 0.0065000000 0.0065000000 0.0065000000 0.0065000000 0.0065000000 0.0065000000 0.0065000000 0.0065000000 0.0065000000 0.0065000000 0.0065000000 0.0065000000 0.0065000000 0.0065000000 0.0065000000 0.0065000000 0.0065000000 0.0065000000 0.0065000000 0.0065000000 0.0065000000 0.0065000000 0.0065000000 0.0065000000 0.0065000000 0.0065000000 0.0065000000 0.0065000000 0.0065000000 0.0065000000 0.0065000000 0.0065000000 0.0065000000 0.0065000000 0.0065000000 0.0065000000 0.0065000000 0.0065000000 0.0065000000 0.0065000000 0.0065000000 0.0065000000 0.0065000000 0.0065000000 0.0065000000 0.0065000000 0.0065000000 0.0065000000 0.0065000000 0.0065000000 0.0065000000 0.0065000000 0.0065000000 0.0065000000 0.0065000000 0.0065000000 0.0065000000 0.0065000000 0.0065000000 0.0065000000 0.0065000000 0.0065000000 0.0065000000 0.0065000000 0.0065000000 0.0065000000 0.0065000000 0.0065000000 0.0065000000 0.0065000000 0.0065000000 0.0065000000 0.0065000000 0.0065000000 0.0065000000 0.0065000000 0.0065000000 0.0065000000 0.0065000000 0.0065000000 0.0065000000 0.0065000000 0.0065000000 0.0065000000 0.0065000000 0.0065000000 0.0065000000 0.0065000000 0.0065000000 0.0065000000 0.0065000000 0.0065000000 0.0065000000 0.0065000000 0.0065000000 0.0065000000 0.0065000000 0.0065000000 0.0065000000 0.0065000000 0.0065000000 0.0065000000 0.0065000000 0.0065000000 0.0065000000 0.0065000000 0.0065000000 0.0065000000 0.0065000000 0.0065000000 0.0065000000 0.0065000000 0.0065000000 0.0065000000 0.0065000000 0.0065000000 0.0065000000 0.0065000000 0.0065000000 0.0065000000 0.0065000000 0.0065000000 0.0065000000 0.0065000000 0.0065000000 0.0065000000 0.0065000000 0.0065000000 0.0065000000 0.0065000000 0.0065000000 0.0065000000 0.0065000000 0.0065000000 0.0065000000 0.0065000000 0.0065000000 0.0065000000 0.0065000000 0.0065000000 0.0065000000 0.0065000000 0.0065000000 0.0065000000 0.0065000000 0.0065000000 0.0065000000 0.0065000000 0.0065000000 0.0065000000 0.0065000000 0.0065000000 0.0065000000 0.0065000000 0.0065000000 0.0065000000 0.0065000000 0.0065000000 0.0065000000 0.0065000000 0.0065000000 0.0065000000 0.0065000000 0.0065000000 0.0065000000 0.0065000000 0.0065000000 0.0065000000 0.0065000000 0.0065000000 0.0065000000 0.0065000000 0.0065000000 0.0065000000 0.0065000000 0.0065000000 0.0065000000 0.0065000000 0.0065000000 0.0065000000 0.0065000000 0.0065000000 0.0065000000 0.0065000000 0.0065000000 0.0065000000 0.0065000000 0.0065000000 0.0065000000 0.0065000000 0.0065000000 0.0065000000 0.0065000000 0.0065000000 0.0065000000 0.0065000000 0.0065000000 0.0065000000 0.0065000000 0.0065000000 0.0065000000 0.0065000000 0.0065000000 0.0065000000 0.0065000000 0.0065000000 0.0065000000 0.0065000000 0.0065000000 0.0065000000 0.0065000000 0.0065000000 0.0065000000 0.0065000000 0.0065000000 0.0065000000 0.0065000000 0.0065000000 0.0065000000 0.0065000000 0.0065000000 0.0065000000 0.0065000000 0.0065000000 0.0065000000 0.0065000000 0.0065000000 0.0065000000 0.0065000000 0.0065000000 0.0065000000 0.0065000000 0.0065000000 0.0065000000 0.0065000000 0.0065000000 0.0065000000 0.0065000000 0.0065000000 0.0065000000 0.0065000000 0.0065000000 0.0065000000 0.0065000000 0.0065000000 0.0065000000 0.0065000000 0.0065000000 0.0065000000 0.0065000000 0.0065000000 0.0065000000 0.0065000000 0.0065000000 0.0065000000 0.0065000000 0.0065000000 0.0065000000 0.0065000000 0.0065000000 0.0065000000 0.0065000000 0.0065000000 0.0065000000 0.0065000000 0.0065000000 0.0065000000 0.0065000000 0.0065000000 0.0065000000 0.0065000000 0.0065000000 0.0065000000 0.0065000000 0.0065000000 0.0065000000 0.0065000000 0.0065000000 0.0065000000 0.0065000000 0.0065000000 0.0065000000 0.0065000000 0.0065000000 0.0065000000 0.0065000000 0.0065000000 0.0065000000 0.0065000000 0.0065000000 0.0065000000 0.0065000000 0.0065000000 0.0065000000 0.0065000000 0.0065000000 0.0065000000 0.0065000000 0.0065000000 0.0065000000 0.0065000000 0.0065000000 0.0065000000 0.0065000000 0.0065000000 0.0065000000 0.0065000000 0.0065000000 0.0065000000 0.0065000000 0.0065000000 0.0065000000 0.0065000000 0.0065000000 0.0065000000 0.0065000000 0.0065000000 0.0065000000 0.0065000000 0.0065000000 0.0065000000 0.0065000000 0.0065000000 0.0065000000 0.0065000000 0.0065000000 0.0065000000 0.0065000000 0.0065000000 0.0065000000 0.0065000000 0.0065000000 0.0065000000 0.0065000000 0.0065000000 0.0065000000 0.0065000000 0.0065000000 0.0065000000 0.0065000000 0.0065000000 0.0065000000 0.0065000000 0.0065000000 0.0065000000 0.0065000000 0.0065000000 0.0065000000 0.0065000000 0.0065000000 0.0065000000 0.0065000000 0.0065000000 0.0065000000 0.0065000000 0.0065000000 0.0065000000 0.0065000000 0.0065000000 0.0065000000 0.0065000000 0.0065000000 0.0065000000 0.0065000000 0.0065000000 0.0065000000 0.0065000000 0.0065000000 0.0065000000 0.0065000000 0.0065000000 0.0065000000 0.0065000000 0.0065000000 0.0065000000 0.0065000000 0.0065000000 0.0065000000 0.0065000000 0.0065000000 0.0065000000 0.0065000000 0.0065000000 0.0065000000 0.0065000000 0.0065000000 0.0065000000 0.0065000000 0.0065000000 0.0065000000 0.0065000000 0.0065000000 0.0065000000 0.0065000000 0.0065000000 0.0065000000 0.0065000000 0.0065000000 0.0065000000 0.0065000000 0.0065000000 0.0065000000 0.0065000000 0.0065000000 0.0065000000 0.0065000000 0.0065000000 0.0065000000 0.0065000000 0.0065000000 0.0065000000 0.0065000000 0.0065000000 0.0065000000 0.0065000000 0.0065000000 0.0065000000 0.0065000000 0.0065000000 0.0065000000 0.0065000000 0.0065000000 0.0065000000 0.0065000000 0.0065000000 0.0065000000 0.0065000000 0.0065000000 0.0065000000 0.0065000000 0.0065000000 0.0065000000 0.0065000000 0.0065000000 0.0065000000 0.0065000000 0.0065000000 0.0065000000 0.0065000000 0.0065000000 0.0065000000 0.0065000000 0.0065000000 0.0065000000 0.0065000000 0.0065000000 0.0065000000 0.0065000000 0.0065000000 0.0065000000 0.0065000000 0.0065000000 0.0065000000 0.0065000000 0.0065000000 0.0065000000 0.0065000000 0.0065000000 0.0065000000 0.0065000000 0.0065000000 0.0065000000 0.0065000000 0.0065000000 0.0065000000 0.0065000000 0.0065000000 0.0065000000 0.0065000000 0.0065000000 0.0065000000 0.0065000000 0.0065000000 0.0065000000 0.0065000000 0.0065000000 0.0065000000 0.0065000000 0.0065000000 0.0065000000 0.0065000000 0.0065000000 0.0065000000 0.0065000000 0.0065000000 0.0065000000 0.0065000000 0.0065000000 0.0065000000 0.0065000000 0.0065000000 0.0065000000 0.0065000000 0.0065000000 0.0065000000 0.0065000000 0.0065000000 0.0065000000 0.0065000000 0.0065000000 0.0065000000 0.0065000000 0.0065000000 0.0065000000 0.0065000000 0.0065000000 0.0065000000 0.0065000000 0.0065000000 0.0065000000 0.0065000000 0.0065000000 0.0065000000 0.0065000000 0.0065000000 0.0065000000 0.0065000000 0.0065000000 0.0065000000 0.0065000000 0.0065000000 0.0065000000 0.0065000000 0.0065000000 0.0065000000 0.0065000000 0.0065000000 0.0065000000 0.0065000000 0.0065000000 0.0065000000 0.0065000000 0.0065000000 0.0065000000 0.0065000000 0.0065000000 0.0065000000 0.0065000000 0.0065000000 0.0065000000 0.0065000000 0.0065000000 0.0065000000 0.0065000000 0.0065000000 0.0065000000 0.0065000000 0.0065000000 0.0065000000 0.0065000000 0.0065000000 0.0065000000 0.0065000000 0.0065000000 0.0065000000 0.0065000000 0.0065000000 0.0065000000 0.0065000000 0.0065000000 0.0065000000 0.0065000000 0.0065000000 0.0065000000 0.0065000000 0.0065000000 0.0065000000 0.0065000000 0.0065000000 0.0065000000 0.0065000000 0.0065000000 0.0065000000 0.0065000000 0.0065000000 0.0065000000 0.0065000000 0.0065000000 0.0065000000 0.0065000000 0.0065000000 0.0065000000 0.0065000000 0.0065000000 0.0065000000 0.0065000000 0.0065000000 0.0065000000 0.0065000000 0.0065000000 0.0065000000 0.0065000000 0.0065000000 0.0065000000 0.0065000000 0.0065000000 0.0065000000 0.0065000000 0.0065000000 0.0065000000 0.0065000000 0.0065000000 0.0065000000 0.0065000000 0.0065000000 0.0065000000 0.0065000000 0.0065000000 0.0065000000 0.0065000000 0.0065000000 0.0065000000 0.0065000000 0.0065000000 0.0065000000 0.0065000000 0.0065000000 0.0065000000 0.0065000000 0.0065000000 0.0065000000 0.0065000000 0.0065000000 0.0065000000 0.0065000000 0.0065000000 0.0065000000 0.0065000000 0.0065000000 0.0065000000 0.0065000000 0.0065000000 0.0065000000 0.0065000000 0.0065000000 0.0065000000 0.0065000000 0.0065000000 0.0065000000 0.0065000000 0.0065000000 0.0065000000 0.0065000000 0.0065000000 0.0065000000 0.0065000000 0.0065000000 0.0065000000 0.0065000000 0.0065000000 0.0065000000 0.0065000000 0.0065000000 0.0065000000 0.0065000000 0.0065000000 0.0065000000 0.0065000000 0.0065000000 0.0065000000 0.0065000000 0.0065000000 0.0065000000 0.0065000000 0.0065000000 0.0065000000 0.0065000000 0.0065000000 0.0065000000 0.0065000000 0.0065000000 0.0065000000 0.0065000000 0.0065000000 0.0065000000 0.0065000000 0.0065000000 0.0065000000 0.0065000000 0.0065000000 0.0065000000 0.0065000000 0.0065000000 0.0065000000 0.0065000000 0.0065000000 0.0065000000 0.0065000000 0.0065000000 0.0065000000 0.0065000000 0.0065000000 0.0065000000 0.0065000000 0.0065000000 0.0065000000 0.0065000000 0.0065000000 0.0065000000 0.0065000000 0.0065000000 0.0065000000 0.0065000000 0.0065000000 0.0065000000 0.0065000000 0.0065000000 0.0065000000 0.0065000000 0.0065000000 0.0065000000 0.0065000000 0.0065000000 0.0065000000 0.0065000000 0.0065000000 0.0065000000 0.0065000000 0.0065000000 0.0065000000 0.0065000000 0.0065000000 0.0065000000 0.0065000000 0.0065000000 0.0065000000 0.0065000000 0.0065000000 0.0065000000 0.0065000000 0.0065000000 0.0065000000 0.0065000000 0.0065000000 0.0065000000 0.0065000000 0.0065000000 0.0065000000 0.0065000000 0.0065000000 0.0065000000 0.0065000000 0.0065000000 0.0065000000 0.0065000000 0.0065000000 0.0065000000 0.0065000000 0.0065000000 0.0065000000 0.0065000000 0.0065000000 0.0065000000 0.0065000000 0.0065000000 0.0065000000 0.0065000000 0.0065000000 0.0065000000 0.0065000000 0.0065000000 0.0065000000 0.0065000000 0.0065000000 0.0065000000 0.0065000000 0.0065000000 0.0065000000 0.0065000000 0.0065000000 0.0065000000 0.0065000000 0.0065000000 0.0065000000 0.0065000000 0.0065000000 0.0065000000 0.0065000000 0.0065000000 0.0065000000 0.0065000000 0.0065000000 0.0065000000 0.0065000000 0.0065000000 0.0065000000 0.0065000000 0.0065000000 0.0065000000 0.0065000000 0.0065000000 0.0065000000 0.0065000000 0.0065000000 0.0065000000 0.0065000000 0.0065000000 0.0065000000 0.0065000000 0.0065000000 0.0065000000 0.0065000000 0.0065000000 0.0065000000 0.0065000000 0.0065000000 0.0065000000 0.0065000000 0.0065000000 0.0065000000 0.0065000000 0.0065000000 0.0065000000 0.0065000000 0.0065000000 0.0065000000 0.0065000000 0.0065000000 0.0065000000 0.0065000000 0.0065000000 0.0065000000 0.0065000000 0.0065000000 0.0065000000 0.0065000000 0.0065000000 0.0065000000 0.0065000000 0.0065000000 0.0065000000 0.0065000000 0.0065000000 0.0065000000 0.0065000000 0.0065000000 0.0065000000 0.0065000000 0.0065000000 0.0065000000 0.0065000000 0.0065000000 0.0065000000 0.0065000000 0.0065000000 0.0065000000 0.0065000000 0.0065000000 0.0065000000 0.0065000000 0.0065000000 0.0065000000 0.0065000000 0.0065000000 0.0065000000 0.0065000000 0.0065000000 0.0065000000 0.0065000000 0.0065000000 0.0065000000 0.0065000000 0.0065000000 0.0065000000 0.0065000000 0.0065000000 0.0065000000 0.0065000000 0.0065000000 0.0065000000 0.0065000000 0.0065000000 0.0065000000 0.0065000000 0.0065000000 0.0065000000 0.0065000000 0.0065000000 0.0065000000 0.0065000000 0.0065000000 0.0065000000 0.0065000000 0.0065000000 0.0065000000 0.0065000000 0.0065000000 0.0065000000 0.0065000000 0.0065000000 0.0065000000 0.0065000000 0.0065000000 0.0065000000 0.0065000000 0.0065000000 0.0065000000 0.0065000000 0.0065000000 0.0065000000 0.0065000000 0.0065000000 0.0065000000 0.0065000000 0.0065000000 0.0065000000 0.0065000000 0.0065000000 0.0065000000 0.0065000000 0.0065000000 0.0065000000 0.0065000000 0.0065000000 0.0065000000 0.0065000000 0.0065000000 0.0065000000 0.0065000000 0.0065000000 0.0065000000 0.006500000