<?xml version="1.0"?>
<VTKFile type="UnstructuredGrid" version="0.1" byte_order="LittleEndian">
  <UnstructuredGrid>
    <FieldData>
      <DataArray type="Float32" Name="TIME"  NumberOfTuples="1" format="ascii"> 2.0485890179 </DataArray>
      <DataArray type="Int32"   Name="STEP"  NumberOfTuples="1" format="ascii"> 27470 </DataArray>
    </FieldData>
    <Piece NumberOfPoints="18081" NumberOfCells="18081">
      <Points>
        <DataArray type="Float32" NumberOfComponents="3" format="ascii">
 0.1160599067 0.0276148701 0.0003447145 0.1180041725 0.0052545484 0.0043038530 0.0838863815 0.0012546979 0.0074435003 0.2331711480 0.0073328668 0.0064995960 0.2017413926 0.0146534548 0.0178312582 0.1445522650 0.0010658005 0.0004662338 0.2896690623 0.0031289632 0.0009554129 0.3387208838 0.0171369643 0.0007667974 0.4151933139 0.0035442249 0.0180566805 0.1962125840 0.0021657266 0.0201944187 0.2321293883 0.0177680777 0.0074829973 0.4721211997 0.0765515264 0.0228056766 0.4219736164 0.0172828938 0.0011536146 0.4270513379 0.0654835732 0.0186177989 0.3808569971 0.0268652425 0.0098234046 0.4150845031 0.0395904948 0.0015772700 0.3572962182 0.0008446551 0.0109088487 0.3206268448 0.0253461841 0.0120332403 0.1781416302 0.0179709744 0.0216870970 0.4883750167 0.0014015009 0.0248300389 0.3987635500 0.0436414911 0.0199047670 0.0694085898 0.0188390111 -0.0001382410 0.0523909046 0.0121199227 -0.0002195284 0.0005419450 0.0613369448 0.0023235200 0.0252487013 0.0205784636 0.0051926964 0.2376928552 0.0055127749 0.0151230264 0.2689548357 0.0167806016 -0.0004290369 0.2662800184 0.0114162691 0.0001784642 0.4289048883 0.0053645645 0.0115045628 0.4252559933 0.0155292763 0.0202841746 0.4555988754 0.0485372781 0.0036132841 0.3867907850 0.0370649084 0.0003238182 0.3898554099 0.0438191064 0.0001969572 0.4466174751 0.0767450765 0.0210596714 0.4191371163 0.0326686553 0.0173237043 0.3620156465 0.0148835681 0.0161435717 0.4277328187 0.0084280826 0.0070250996 0.3618685643 0.0121687014 0.0000472653 0.1691648046 0.0094781082 0.0192580166 0.1889204390 0.0220825625 0.0191921556 0.0492015996 0.0087674808 0.0026916226 0.3431250843 0.0184710608 0.0115026043 0.1764877443 0.0083732410 -0.0001109829 0.1286989744 0.0031611797 0.0003831492 0.1202089249 0.0075981722 0.0000235107 0.0728661962 0.0169588276 0.0019174776 0.2039137272 0.0008110507 0.0121783078 0.2803833707 0.0149476387 0.0049621110 0.3219365644 0.0316841245 -0.0001852845 0.2476545885 0.0465354743 0.0229599226 0.1989664972 0.0357903157 0.0211384504 0.2759494451 0.0130849791 0.0051939541 0.4707795503 0.0272780905 0.0014452050 0.3879968475 0.0532082146 0.0128107045 0.3832800061 0.0562084701 0.0033862600 0.4039317816 0.0289889567 0.0122986414 0.4022823844 0.0441693365 0.0138546092 0.2601813433 0.0111938674 0.0227260041 0.4099171677 0.0108134078 0.0124454415 0.4198922445 0.0101598296 0.0190854207 0.4606756340 0.0053735405 0.0213461172 0.3120463341 0.0231395499 0.0087984197 0.4329123522 0.0479615540 0.0192221680 0.0819247088 0.0251134994 0.0001351180 0.1552634526 0.0143602525 -0.0000020731 0.1179886651 0.0112010715 0.0138781284 0.1879236005 0.0103808438 0.0189603229 0.2587048616 0.0192294125 0.0215162385 0.2850984775 0.0014278777 0.0092508071 0.3197719048 0.0073760798 0.0001181496 0.2724803580 0.0169569664 0.0144926790 0.4794216053 0.0008147572 0.0005262271 0.4960512310 0.0268206770 0.0191030274 0.4011850321 0.0584001948 0.0045870508 0.3453319414 0.0505562764 0.0033239943 0.4175641261 0.0498950649 0.0159783698 0.4066988116 0.0378675778 0.0148383120 0.3344834924 0.0209817229 0.0198693681 0.4899962630 0.0369885412 0.0151219977 0.0787357981 0.0159689785 0.0045208321 0.2051462961 0.0311775646 0.0173553945 0.0657373647 0.0093321530 0.0089136168 0.4330601510 0.0553236737 0.0159627343 0.3205416763 0.0162285346 0.0121597661 0.1255211634 0.0256045667 -0.0000935094 0.1533653685 0.0007105860 0.0028824832 0.2220502592 0.0007322449 0.0089224915 0.1565458398 0.0005995726 -0.0003703396 0.0954998977 0.0130117591 -0.0000711669 0.2568177565 0.0325910685 0.0123470981 0.2830860749 0.0307697457 0.0038101873 0.4303458836 0.0211572474 0.0183619371 0.2303810305 0.0454958742 0.0254192834 0.4398833831 0.0138138939 0.0001674200 0.4974602911 0.0416336593 0.0092188783 0.3169410917 0.0507380853 0.0028979940 0.3558444742 0.0457083995 -0.0004166434 0.4136871878 0.0731340772 0.0132329500 0.3592349907 0.0241014460 0.0040872229 0.1542460032 0.0219661273 0.0200232754 0.3050552991 0.0144120004 0.0177863593 0.2877460278 0.0438219988 0.0255070653 0.4551325745 0.0115800095 0.0217760850 0.4957783513 0.0430824378 0.0461890971 0.4363272034 0.0611095042 0.0195632489 0.0937486245 0.0336124841 -0.0002073888 0.1385577832 0.0297918986 0.0006889007 0.1799744481 0.0007178525 0.0100912502 0.0924053510 0.0023938384 0.0037151896 0.1841447682 -0.0000479721 0.0011909438 0.2315931275 0.0131948800 0.0000524448 0.3303088774 0.0057213889 0.0010429243 0.4491779577 0.0000197018 0.0004013105 0.2663942123 0.0382851479 0.0169727529 0.3177123830 0.0134774955 0.0160214945 0.3294319382 0.0433788759 0.0056068760 0.2958102446 0.0551862696 0.0024658241 0.3777734425 0.0599375724 0.0162442978 0.4732245201 0.0436396561 0.0116809644 0.4067702336 0.0238139159 -0.0007014757 0.1798467647 0.0297564432 0.0208521512 0.2244835314 0.0256463427 0.0047908578 0.0099221623 0.0004848603 0.0073692969 0.0885889573 0.0165295815 0.0107587566 0.3805851933 0.0277473035 0.0061485898 0.3317669514 0.0301917605 0.0088337534 0.2124819512 0.0089565088 0.0028068432 0.1562397679 0.0131931537 0.0096158082 0.1391151558 0.0008704909 -0.0001729206 0.0231375806 0.0230302818 0.0000804903 0.1653199442 0.0228861173 0.0106700602 0.2378796413 -0.0003087173 0.0012920467 0.4302361349 0.0258464067 0.0034297146 0.2423546995 0.0389157476 0.0039439571 0.2420568165 0.0100669281 -0.0000813284 0.4730542872 0.0363776718 0.0027819621 0.3913422339 0.0148897819 0.0004598393 0.3952423778 0.0644966437 0.0004491238 0.3575861645 0.0438587167 0.0041893033 0.4006947027 0.0642972196 0.0156300563 0.3163705756 0.0333661289 0.0197819137 0.3178196694 0.0371773386 0.0208140900 0.1510916712 0.0201220770 0.0129050017 0.2239980721 0.0481172588 0.0253289295 0.0184250663 0.0167455894 0.0137302116 0.4482990796 0.0931980758 0.0232306619 0.2975758992 0.0433991405 0.0246563453 0.1817934911 0.0077636452 0.0002831338 0.0349175868 0.0062419329 0.0097488320 0.1523496985 0.0390240109 0.0150857387 0.1246324975 0.0001176742 0.0010515837 0.1573937455 0.0212550572 -0.0004069660 0.2211775963 0.0465613560 0.0100201999 0.3799281888 0.0279541575 -0.0001522759 0.2360680982 0.0319447321 0.0013187566 0.2471114653 0.0179933025 0.0105817921 0.2617371814 0.0420596240 0.0146783587 0.4538057329 0.0849820390 0.0242599107 0.3773910911 0.0565783666 0.0032419758 0.3059244692 0.0643862618 0.0043284201 0.2545638696 0.0226781735 0.0073983023 0.4052427396 0.0787532279 0.0139195012 0.2962435828 0.0325113838 0.0206521432 0.0250097973 0.0280851899 0.0034961828 0.0111286047 0.0495710516 0.0116157036 0.4269653583 0.0758562925 0.0141077983 0.1623682016 0.0443241116 0.0211601641 0.4230318260 0.0627440586 0.0209722961 0.1936492542 0.0035735280 0.0004558642 0.1610410254 0.0599906777 0.0151925371 0.0980131403 0.0008614697 0.0031143698 0.1022111824 0.0021745342 0.0053176114 0.0732793140 0.0151866983 0.0073153305 0.2525838965 0.0191302722 0.0032277462 0.3163479383 0.0119253299 -0.0002572144 0.2483854177 0.0175159108 -0.0000038389 0.3355966782 0.0225891000 0.0111889431 0.2653797960 0.0426882117 0.0193303781 0.3229878223 0.0486225949 0.0125192086 0.4638897161 0.0563252257 0.0102618135 0.4261127820 0.0791294687 0.0205432403 0.3758285386 0.0736004465 0.0075475556 0.2228235858 0.0550439322 0.0062812306 0.2184841295 0.0445911404 0.0000496987 0.3934740051 0.0419721024 0.0198438233 0.3813290736 0.0260191104 0.0157384150 0.3747280102 0.0327439952 0.0119530801 0.3347701028 0.0798180622 0.0099366912 0.1861146692 0.0211962652 0.0229044964 0.2023538079 0.0122012391 0.0007169087 0.2095229726 0.0070398121 0.0063620357 0.1695092125 0.0125721839 0.0060288382 0.1315525738 0.0174503525 -0.0001131394 0.0341924897 0.0173415891 0.0061513951 0.2710416500 0.0291705198 0.0082411078 0.3741418811 0.0356022661 -0.0005873515 0.3621005109 0.0223496974 0.0001766501 0.4100397550 0.0147033934 0.0005642043 0.2725809306 0.0166835632 0.0027867860 0.4037846416 0.0457641449 0.0047411522 0.3092160469 0.0719399600 0.0007657645 0.4769865515 0.0606772581 0.0149351942 0.4068196689 0.0687893671 0.0073473868 0.3631279308 0.0487277470 0.0053105130 0.4472591619 0.0428905922 0.0183142043 0.3363521987 0.0749984124 0.0221319915 0.3972284324 0.0562048077 0.0190599558 0.3129572623 0.0577181782 0.0230541664 0.1150444616 0.0594717313 0.0174191394 0.4447458767 0.0769651088 0.0137707445 0.1967142172 0.0718403723 -0.0003491596 0.1889884877 0.0821575634 0.0141149388 0.2002387261 0.0898784073 0.0057432021 0.1662275900 0.0191373160 0.0124021597 0.1156088240 0.0571141753 0.0120763643 0.2612327674 0.0409613125 0.0040772768 0.2764711537 0.0347087515 0.0030797972 0.2211680063 0.0608377996 0.0083191453 0.1666347676 0.0393438676 0.0159179214 0.4120927010 0.0302056450 0.0045619597 0.3222817776 0.0739169394 0.0039117333 0.3510522422 0.0782930141 0.0048562771 0.3920106555 0.0788399245 0.0070900807 0.3228844607 0.0848019994 0.0090413996 0.2242147752 0.0510659237 0.0111190254 0.4597324708 0.0558548181 0.0079106835 0.3941266382 0.0519818166 0.0179726250 0.1226750256 0.0421776464 0.0204791080 0.1975494483 0.0467409281 0.0221767845 0.0805092337 0.0754902316 0.0120862892 0.3642459261 0.0727345883 0.0189954415 0.1820301171 0.0538651266 0.0072454490 0.1816884580 0.0643232662 0.0065826848 0.1532348175 0.0847026617 0.0027196910 0.1518478587 0.0081720325 0.0034117385 0.1766564591 0.0329708840 0.0070740140 0.2544418589 0.0435071132 0.0091011841 0.2962375026 0.0461651644 0.0137388842 0.2275798756 0.0374402963 0.0002384302 0.1616835426 0.0197565308 0.0085617746 0.2840541335 0.0555461996 0.0059369279 0.2986449726 0.0785999173 0.0086590992 0.4774646197 0.0794983012 0.0040837768
[...]
      <PointData Scalars="smoothLength">
        <DataArray type="Float32" Name="smoothLength" format="ascii">
 0.0065000000 0.0065000000 0.0065000000 0.0065000000 0.0065000000 0.0065000000 0.0065000000 0.0065000000 0.0065000000 0.0065000000 0.0065000000 0.0065000000 0.0065000000 0.0065000000 0.0065000000 0.0065000000 0.0065000000 0.0065000000 0.0065000000 0.0065000000 0.0065000000 0.0065000000 0.0065000000 0.0065000000 0.0065000000 0.0065000000 0.0065000000 0.0065000000 0.0065000000 0.0065000000 0.0065000000 0.0065000000 0.0065000000 0.0065000000 0.0065000000 0.0065000000 0.0065000000 0.0065000000 0.0065000000 0.0065000000 0.0065000000 0.0065000000 0.0065000000 0.0065000000 0.0065000000 0.0065000000 0.0065000000 0.0065000000 0.0065000000 0.0065000000 0.0065000000 0.0065000000 0.0065000000 0.0065000000 0.0065000000 0.0065000000 0.0065000000 0.0065000000 0.0065000000 0.0065000000 0.0065000000 0.0065000000 0.0065000000 0.0065000000 0.0065000000 0.0065000000 0.0065000000 0.0065000000 0.0065000000 0.0065000000 0.0065000000 0.0065000000 0.0065000000 0.0065000000 0.0065000000 0.0065000000 0.0065000000 0.0065000000 0.0065000000 0.0065000000 0.0065000000 0.0065000000 0.0065000000 0.0065000000 0.0065000000 0.0065000000 0.0065000000 0.0065000000 0.0065000000 0.0065000000 0.0065000000 0.0065000000 0.0065000000 0.0065000000 0.0065000000 0.0065000000 0.0065000000 0.0065000000 0.0065000000 0.0065000000 0.0065000000 0.0065000000 0.0065000000 0.0065000000 0.0065000000 0.0065000000 0.0065000000 0.0065000000 0.0065000000 0.0065000000 0.0065000000 0.0065000000 0.0065000000 0.0065000000 0.0065000000 0.0065000000 0.0065000000 0.0065000000 0.0065000000 0.0065000000 0.0065000000 0.0065000000 0.0065000000 0.0065000000 0.0065000000 0.0065000000 0.0065000000 0.0065000000 0.0065000000 0.0065000000 0.0065000000 0.0065000000 0.0065000000 0.0065000000 0.0065000000 0.0065000000 0.0065000000 0.0065000000 0.0065000000 0.0065000000 0.0065000000 0.0065000000 0.0065000000 0.0065000000 0.0065000000 0.0065000000 0.0065000000 0.0065000000 0.0065000000 0.0065000000 0.0065000000 0.0065000000 0.0065000000 0.0065000000 0.0065000000 0.0065000000 0.0065000000 0.0065000000 0.0065000000 0.0065000000 0.0065000000 0.0065000000 0.0065000000 0.0065000000 0.0065000000 0.0065000000 0.0065000000 0.0065000000 0.0065000000 0.0065000000 0.0065000000 0.0065000000 0.0065000000 0.0065000000 0.0065000000 0.0065000000 0.0065000000 0.0065000000 0.0065000000 0.0065000000 0.0065000000 0.0065000000 0.0065000000 0.0065000000 0.0065000000 0.0065000000 0.0065000000 0.0065000000 0.0065000000 0.0065000000 0.0065000000 0.0065000000 0.0065000000 0.0065000000 0.0065000000 0.0065000000 0.0065000000 0.0065000000 0.0065000000 0.0065000000 0.0065000000 0.0065000000 0.0065000000 0.0065000000 0.0065000000 0.0065000000 0.0065000000 0.0065000000 0.0065000000 0.0065000000 0.0065000000 0.0065000000 0.0065000000 0.0065000000 0.0065000000 0.0065000000 0.0065000000 0.0065000000 0.0065000000 0.0065000000 0.0065000000 0.0065000000 0.0065000000 0.0065000000 0.0065000000 0.0065000000 0.0065000000 0.0065000000 0.0065000000 0.0065000000 0.0065000000 0.0065000000 0.0065000000 0.0065000000 0.0065000000 0.0065000000 0.0065000000 0.0065000000 0.0065000000 0.0065000000 0.0065000000 0.0065000000 0.0065000000 0.0065000000 0.0065000000 0.0065000000 0.0065000000 0.0065000000 0.0065000000 0.0065000000 0.0065000000 0.0065000000 0.0065000000 0.0065000000 0.0065000000 0.0065000000 0.0065000000 0.0065000000 0.0065000000 0.0065000000 0.0065000000 0.0065000000 0.0065000000 0.0065000000 0.0065000000 0.0065000000 0.0065000000 0.0065000000 0.0065000000 0.0065000000 0.0065000000 0.0065000000 0.0065000000 0.0065000000 0.0065000000 0.0065000000 0.0065000000 0.0065000000 0.0065000000 0.0065000000 0.0065000000 0.0065000000 0.0065000000 0.0065000000 0.0065000000 0.0065000000 0.0065000000 0.0065000000 0.0065000000 0.0065000000 0.0065000000 0.0065000000 0.0065000000 0.0065000000 0.0065000000 0.0065000000 0.0065000000 0.0065000000 0.0065000000 0.0065000000 0.0065000000 0.0065000000 0.0065000000 0.0065000000 0.0065000000 0.0065000000 0.0065000000 0.0065000000 0.0065000000 0.0065000000 0.0065000000 0.0065000000 0.0065000000 0.0065000000 0.0065000000 0.0065000000 0.0065000000 0.0065000000 0.0065000000 0.0065000000 0.0065000000 0.0065000000 0.0065000000 0.0065000000 0.0065000000 0.0065000000 0.0065000000 0.0065000000 0.0065000000 0.0065000000 0.0065000000 0.0065000000 0.0065000000 0.0065000000 0.0065000000 0.0065000000 0.0065000000 0.0065000000 0.0065000000 0.0065000000 0.0065000000 0.0065000000 0.0065000000 0.0065000000 0.0065000000 0.0065000000 0.0065000000 0.0065000000 0.0065000000 0.0065000000 0.0065000000 0.0065000000 0.0065000000 0.0065000000 0.0065000000 0.0065000000 0.0065000000 0.0065000000 0.0065000000 0.0065000000 0.0065000000 0.0065000000 0.0065000000 0.0065000000 0.0065000000 0.0065000000 0.0065000000 0.0065000000 0.0065000000 0.0065000000 0.0065000000 0.0065000000 0.0065000000 0.0065000000 0.0065000000 0.0065000000 0.0065000000 0.0065000000 0.0065000000 0.0065000000 0.0065000000 0.0065000000 0.0065000000 0.0065000000 0.0065000000 0.0065000000 0.0065000000 0.0065000000 0.0065000000 0.0065000000 0.0065000000 0.0065000000 0.0065000000 0.0065000000 0.0065000000 0.0065000000 0.0065000000 0.0065000000 0.0065000000 0.0065000000 0.0065000000 0.0065000000 0.0065000000 0.0065000000 0.0065000000 0.0065000000 0.0065000000 0.0065000000 0.0065000000 0.0065000000 0.0065000000 0.0065000000 0.0065000000 0.0065000000 0.0065000000 0.0065000000 0.0065000000 0.0065000000 0.0065000000 0.0065000000 0.0065000000 0.0065000000 0.0065000000 0.0065000000 0.0065000000 0.0065000000 0.0065000000 0.0065000000 0.0065000000 0.0065000000 0.0065000000 0.0065000000 0.0065000000 0.0065000000 0.0065000000 0.0065000000 0.0065000000 0.0065000000 0.0065000000 0.0065000000 0.0065000000 0.0065000000 0.0065000000 0.0065000000 0.0065000000 0.0065000000 0.0065000000 0.0065000000 0.0065000000 0.0065000000 0.0065000000 0.0065000000 0.0065000000 0.0065000000 0.0065000000 0.0065000000 0.0065000000 0.0065000000 0.0065000000 0.0065000000 0.0065000000 0.0065000000 0.0065000000 0.0065000000 0.0065000000 0.0065000000 0.0065000000 0.0065000000 0.0065000000 0.0065000000 0.0065000000 0.0065000000 0.0065000000 0.0065000000 0.0065000000 0.0065000000 0.0065000000 0.0065000000 0.0065000000 0.0065000000 0.0065000000 0.0065000000 0.0065000000 0.0065000000 0.0065000000 0.0065000000 0.0065000000 0.0065000000 0.0065000000 0.0065000000 0.0065000000 0.0065000000 0.0065000000 0.0065000000 0.0065000000 0.0065000000 0.0065000000 0.0065000000 0.0065000000 0.0065000000 0.0065000000 0.0065000000 0.0065000000 0.0065000000 0.0065000000 0.0065000000 0.0065000000 0.0065000000 0.0065000000 0.0065000000 0.0065000000 0.0065000000 0.0065000000 0.0065000000 0.0065000000 0.0065000000 0.0065000000 0.0065000000 0.0065000000 0.0065000000 0.0065000000 0.0065000000 0.0065000000 0.0065000000 0.0065000000 0.0065000000 0.0065000000 0.0065000000 0.0065000000 0.0065000000 0.0065000000 0.0065000000 0.0065000000 0.0065000000 0.0065000000 0.0065000000 0.0065000000 0.0065000000 0.0065000000 0.0065000000 0.0065000000 0.0065000000 0.0065000000 0.0065000000 0.0065000000 0.0065000000 0.0065000000 0.0065000000 0.0065000000 0.0065000000 0.0065000000 0.0065000000 0.0065000000 0.0065000000 0.0065000000 0.0065000000 0.0065000000 0.0065000000 0.0065000000 0.0065000000 0.0065000000 0.0065000000 0.0065000000 0.0065000000 0.0065000000 0.0065000000 0.0065000000 0.0065000000 0.0065000000 0.0065000000 0.0065000000 0.0065000000 0.0065000000 0.0065000000 0.0065000000 0.0065000000 0.0065000000 0.0065000000 0.0065000000 0.0065000000 0.0065000000 0.0065000000 0.0065000000 0.0065000000 0.0065000000 0.0065000000 0.0065000000 0.0065000000 0.0065000000 0.0065000000 0.0065000000 0.0065000000 0.0065000000 0.0065000000 0.0065000000 0.0065000000 0.0065000000 0.0065000000 0.0065000000 0.0065000000 0.0065000000 0.0065000000 0.0065000000 0.0065000000 0.0065000000 0.0065000000 0.0065000000 0.0065000000 0.0065000000 0.0065000000 0.0065000000 0.0065000000 0.0065000000 0.0065000000 0.0065000000 0.0065000000 0.0065000000 0.0065000000 0.0065000000 0.0065000000 0.0065000000 0.0065000000 0.0065000000 0.0065000000 0.0065000000 0.0065000000 0.0065000000 0.0065000000 0.0065000000 0.0065000000 0.0065000000 0.0065000000 0.0065000000 0.0065000000 0.0065000000 0.0065000000 0.0065000000 0.0065000000 0.0065000000 0.0065000000 0.0065000000 0.0065000000 0.0065000000 0.0065000000 0.0065000000 0.0065000000 0.0065000000 0.0065000000 0.0065000000 0.0065000000 0.0065000000 0.0065000000 0.0065000000 0.0065000000 0.0065000000 0.0065000000 0.0065000000 0.0065000000 0.0065000000 0.0065000000 0.0065000000 0.0065000000 0.0065000000 0.0065000000 0.0065000000 0.0065000000 0.0065000000 0.0065000000 0.0065000000 0.0065000000 0.0065000000 0.0065000000 0.0065000000 0.0065000000 0.0065000000 0.0065000000 0.0065000000 0.0065000000 0.0065000000 0.0065000000 0.0065000000 0.0065000000 0.0065000000 0.0065000000 0.0065000000 0.0065000000 0.0065000000 0.0065000000 0.0065000000 0.0065000000 0.0065000000 0.0065000000 0.0065000000 0.0065000000 0.0065000000 0.0065000000 0.0065000000 0.0065000000 0.0065000000 0.0065000000 0.0065000000 0.0065000000 0.0065000000 0.0065000000 0.0065000000 0.0065000000 0.0065000000 0.0065000000 0.0065000000 0.0065000000 0.0065000000 0.0065000000 0.0065000000 0.0065000000 0.0065000000 0.0065000000 0.0065000000 0.0065000000 0.0065000000 0.0065000000 0.0065000000 0.0065000000 0.0065000000 0.0065000000 0.0065000000 0.0065000000 0.0065000000 0.0065000000 0.0065000000 0.0065000000 0.0065000000 0.0065000000 0.0065000000 0.0065000000 0.0065000000 0.0065000000 0.0065000000 0.0065000000 0.0065000000 0.0065000000 0.0065000000 0.0065000000 0.0065000000 0.0065000000 0.0065000000 0.0065000000 0.0065000000 0.0065000000 0.0065000000 0.0065000000 0.0065000000 0.0065000000 0.0065000000 0.0065000000 0.0065000000 0.0065000000 0.0065000000 0.0065000000 0.0065000000 0.0065000000 0.0065000000 0.0065000000 0.0065000000 0.0065000000 0.0065000000 0.0065000000 0.0065000000 0.0065000000 0.0065000000 0.0065000000 0.0065000000 0.0065000000 0.0065000000 0.0065000000 0.0065000000 0.0065000000 0.0065000000 0.0065000000 0.0065000000 0.0065000000 0.0065000000 0.0065000000 0.0065000000 0.0065000000 0.0065000000 0.0065000000 0.0065000000 0.0065000000 0.0065000000 0.0065000000 0.0065000000 0.0065000000 0.0065000000 0.0065000000 0.0065000000 0.0065000000 0.0065000000 0.0065000000 0.0065000000 0.0065000000 0.0065000000 0.0065000000 0.0065000000 0.0065000000 0.0065000000 0.0065000000 0.0065000000 0.0065000000 0.0065000000 0.0065000000 0.0065000000 0.0065000000 0.0065000000 0.0065000000 0.0065000000 0.0065000000 0.0065000000 0.0065000000 0.0065000000 0.0065000000 0.0065000000 0.0065000000 0.0065000000 0.0065000000 0.0065000000 0.0065000000 0.0065000000 0.0065000000 0.0065000000 0.0065000000 0.0065000000 0.0065000000 0.0065000000 0.0065000000 0.0065000000 0.0065000000 0.0065000000 0.0065000000 0.0065000000 0.0065000000 0.0065000000 0.0065000000 0.0065000000 0.0065000000 0.0065000000 0.0065000000 0.0065000000 0.0065000000 0.0065000000 0.0065000000 0.0065000000 0.0065000000 0.0065000000 0.0065000000 0.0065000000 0.0065000000 0.0065000000 0.0065000000 0.0065000000 0.0065000000 0.0065000000 0.0065000000 0.0065000000 0.0065000000 0.0065000000 0.0065000000 0.0065000000 0.0065000000 0.0065000000 0.0065000000 0.0065000000 0.0065000000 0.0065000000 0.0065000000 0.0065000000 0.0065000000 0.0065000000 0.0065000000 0.0065000000 0.0065000000 0.0065000000 0.0065000000 0.0065000000 0.0065000000 0.0065000000 0.0065000000 0.0065000000 0.0065000000 0.0065000000 0.0065000000 0.0065000000 0.0065000000 0.0065000000 0.0065000000 0.0065000000 0.0065000000 0.0065000000 0.0065000000 0.0065000000 0.0065000000 0.0065000000 0.0065000000 0.0065000000 0.0065000000 0.0065000000 0.0065000000 0.0065000000 0.0065000000 0.0065000000 0.0065000000 0.0065000000 0.0065000000 0.0065000000 0.0065000000 0.0065000000 0.0065000000 0.0065000000 0.0065000000 0.0065000000 0.0065000000 0.0065000000 0.0065000000 0.0065000000 0.0065000000 0.0065000000 0.0065000000 0.0065000000 0.0065000000 0.0065000000 0.0065000000 0.0065000000 0.0065000000 0.0065000000 0.0065000000 0.0065000000 0.0065000000 0.0065000000 0.0065000000 0.0065000000 0.0065000000 0.0065000000 0.0065000000 0.0065000000 0.0065000000 0.0065000000 0.0065000000 0.0065000000 0.0065000000 0.0065000000 0.0065000000 0.0065000000 0.0065000000 0.0065000000 0.0065000000 0.0065000000 0.0065000000 0.0065000000 0.0065000000 0.0065000000 0.0065000000 0.0065000000 0.0065000000 0.0065000000 0.0065000000 0.0065000000 0.0065000000 0.0065000000 0.0065000000 0.0065000000 0.0065000000 0.0065000000 0.0065000000 0.0065000000 0.0065000000 0.0065000000 0.0065000000 0.0065000000 0.0065000000 0.0065000000 0.0065000000 0.0065000000 0.0065000000 0.0065000000 0.0065000000 0.0065000000 0.0065000000 0.0065000000 0.0065000000 0.0065000000 0.0065000000 0.0065000000 0.0065000000 0.0065000000 0.0065000000 0.0065000000 0.0065000000 0.0065000000 0.0065000000 0.0065000000 0.0065000000 0.0065000000 0.0065000000 0.0065000000 0.0065000000 0.0065000000 0.0065000000 0.0065000000 0.0065000000 0.0065000000 0.0065000000 0.0065000000 0.0065000000 0.0065000000 0.0065000000 0.0065000000 0.0065000000 0.0065000000 0.0065000000 0.0065000000 0.0065000000 0.0065000000 0.0065000000 0.0065000000 0.0065000000 0.0065000000 0.0065000000 0.0065000000 0.0065000000 0.0065000000 0.0065000000 0.0065000000 0.0065000000 0.0065000000 0.0065000000 0.0065000000 0.0065000000 0.0065000000 0.0065000000 0.0065000000 0.0065000000 0.0065000000 0.0065000000 0.0065000000 0.0065000000 0.0065000000 0.0065000000 0.0065000000 0.0065000000 0.0065000000 0.0065000000 0.0065000000 0.0065000000 0.0065000000 0.0065000000 0.0065000000 0.0065000000 0.0065000000 0.0065000000 0.0065000000 0.0065000000 0.0065000000 0.0065000000 0.0065000000 0.0065000000 0.0065000000 0.0065000000 0.0065000000 0.0065000000 0.0065000000 0.0065000000 0.0065000000 0.0065000000 0.0065000000 0.0065000000 0.0065000000 0.0065000000 0.0065000000 0.0065000000 0.0065000000 0.0065000000 0.0065000000 0.0065000000 0.0065000000 0.0065000000 0.0065000000 0.0065000000 0.0065000000 0.0065000000 0.0065000000 0.0065000000 0.0065000000 0.0065000000 0.0065000000 0.0065000000 0.0065000000 0.0065000000 0.0065000000 0.0065000000 0.0065000000 0.0065000000 0.0065000000 0.0065000000 0.0065000000 0.0065000000 0.0065000000 0.0065000000 0.0065000000 0.0065000000 0.0065000000 0.0065000000 0.0065000000 0.0065000000 0.0065000000 0.0065000000 0.0065000000 0.0065000000 0.0065000000 0.0065000000 0.0065000000 0.0065000000 0.0065000000 0.0065000000 0.0065000000 0.0065000000 0.0065000000 0.0065000000 0.0065000000 0.0065000000 0.0065000000 0.0065000000 0.0065000000 0.0065000000 0.0065000000 0.0065000000 0.0065000000 0.0065000000 0.0065000000 0.0065000000 0.0065000000 0.0065000000 0.0065000000 0.0065000000 0.0065000000 0.0065000000 0.0065000000 0.0065000000 0.0065000000 0.0065000000 0.0065000000 0.0065000000 0.0065000000 0.0065000000 0.0065000000 0.0065000000 0.0065000000 0.0065000000 0.0065000000 0.0065000000 0.0065000000 0.0065000000 0.0065000000 0.0065000000 0.0065000000 0.0065000000 0.0065000000 0.0065000000 0.0065000000 0.0065000000 0.0065000000 0.0065000000 0.0065000000 0.0065000000 0.0065000000 0.0065000000 0.0065000000 0.0065000000 0.0065000000 0.0065000000 0.0065000000 0.0065000000 0.0065000000 0.0065000000 0.0065000000 0.0065000000 0.0065000000 0.0065000000 0.0065000000 0.0065000000 0.0065000000 0.0065000000 0.0065000000 0.0065000000 0.0065000000 0.0065000000 0.0065000000 0.0065000000 0.0065000000 0.0065000000 0.0065000000 0.0065000000 0.0065000000 0.0065000000 0.0065000000 0.0065000000 0.0065000000 0.0065000000 0.0065000000 0.0065000000 0.0065000000 0.0065000000 0.0065000000 0.0065000000 0.0065000000 0.0065000000 0.0065000000 0.0065000000 0.0065000000 0.0065000000 0.0065000000 0.0065000000 0.0065000000 0.0065000000 0.0065000000 0.0065000000 0.0065000000 0.0065000000 0.0065000000 0.0065000000 0.0065000000 0.0065000000 0.0065000000 0.0065000000 0.0065000000 0.0065000000 0.0065000000 0.0065000000 0.0065000000 0.0065000000 0.0065000000 0.0065000000 0.0065000000 0.0065000000 0.0065000000 0.0065000000 0.0065000000 0.0065000000 0.0065000000 0.0065000000 0.0065000000 0.0065000000 0.0065000000 0.0065000000 0.0065000000 0.0065000000 0.0065000000 0.0065000000 0.0065000000 0.0065000000 0.0065000000 0.0065000000 0.0065000000 0.0065000000 0.0065000000 0.0065000000 0.0065000000 0.0065000000 0.0065000000 0.0065000000 0.0065000000 0.0065000000 0.0065000000 0.0065000000 0.0065000000 0.0065000000 0.0065000000 0.0065000000 0.0065000000 0.0065000000 0.0065000000 0.0065000000 0.0065000000 0.0065000000 0.0065000000 0.0065000000 0.0065000000 0.0065000000 0.0065000000 0.0065000000 0.0065000000 0.0065000000 0.0065000000 0.0065000000 0.0065000000 0.0065000000 0.0065000000 0.0065000000 0.0065000000 0.0065000000 0.0065000000 0.0065000000 0.0065000000 0.0065000000 0.0065000000 0.0065000000 0.0065000000 0.0065000000 0.0065000000 0.0065000000 0.0065000000 0.0065000000 0.0065000000 0.0065000000 0.0065000000 0.0065000000 0.0065000000 0.0065000000 0.0065000000 0.0065000000 0.0065000000 0.0065000000 0.0065000000 0.0065000000 0.0065000000 0.0065000000 0.0065000000 0.0065000000 0.0065000000 0.0065000000 0.0065000000 0.0065000000 0.0065000000 0.0065000000 0.0065000000 0.0065000000 0.0065000000 0.0065000000 0.0065000000 0.0065000000 0.0065000000 0.0065000000 0.0065000000 0.0065000000 0.0065000000 0.0065000000 0.0065000000 0.0065000000 0.0065000000 0.0065000000 0.0065000000 0.0065000000 0.0065000000 0.0065000000 0.0065000000 0.0065000000 0.0065000000 0.0065000000 0.0065000000 0.0065000000 0.0065000000 0.0065000000 0.0065000000 0.0065000000 0.0065000000 0.0065000000 0.0065000000 0.0065000000 0.0065000000 0.0065000000 0.0065000000 0.0065000000 0.0065000000 0.0065000000 0.0065000000 0.0065000000 0.0065000000 0.0065000000 0.0065000000 0.0065000000 0.0065000000 0.0065000000 0.0065000000 0.0065000000 0.0065000000 0.0065000000 0.0065000000 0.0065000000 0.0065000000 0.0065000000 0.0065000000 0.0065000000 0.0065000000 0.0065000000 0.0065000000 0.0065000000 0.0065000000 0.0065000000 0.0065000000 0.0065000000 0.0065000000 0.0065000000 0.0065000000 0.0065000000 0.0065000000 0.0065000000 0.0065000000 0.0065000000 0.0065000000 0.0065000000 0.0065000000 0.0065000000 0.0065000000 0.0065000000 0.0065000000 0.0065000000 0.0065000000 0.0065000000 0.0065000000 0.0065000000 0.0065000000 0.0065000000 0.0065000000 0.0065000000 0.0065000000 0.0065000000 0.0065000000 0.0065000000 0.0065000000 0.0065000000 0.0065000000 0.0065000000 0.0065000000 0.0065000000 0.0065000000 0.0065000000 0.0065000000 0.0065000000 0.0065000000 0.0065000000 0.0065000000 0.0065000000 0.0065000000 0.0065000000 0.0065000000 0.0065000000 0.0065000000 0.0065000000 0.0065000000 0.0065000000 0.0065000000 0.0065000000 0.0065000000 0.0065000000 0.0065000000 0.0065000000 0.0065000000 0.0065000000 0.0065000000 0.0065000000 0.0065000000 0.0065000000 0.0065000000 0.0065000000 0.0065000000 0.0065000000 0.0065000000 0.0065000000 0.0065000000 0.0065000000 0.0065000000 0.0065000000 0.0065000000 0.0065000000 0.0065000000 0.0065000000 0.0065000000 0.0065000000 0.0065000000 0.0065000000 0.0065000000 0.0065000000 0.0065000000 0.0065000000 0.0065000000 0.0065000000 0.0065000000 0.0065000000 0.0065000000 0.0065000000 0.0065000000 0.0065000000 0.0065000000 0.0065000000 0.0065000000 0.0065000000 0.0065000000 0.0065000000 0.0065000000 0.0065000000 0.0065000000 0.0065000000 0.0065000000 0.0065000000 0.0065000000 0.0065000000 0.0065000000 0.0065000000 0.0065000000 0.0065000000 0.0065000000 0.0065000000 0.0065000000 0.0065000000 0.0065000000 0.0065000000 0.0065000000 0.0065000000 0.0065000000 0.0065000000 0.0065000000 0.0065000000 0.0065000000 0.0065000000 0.0065000000 0.0065000000 0.0065000000 0.0065000000 0.0065000000 0.0065000000 0.0065000000 0.006500000