<?xml version="1.0"?>
<VTKFile type="UnstructuredGrid" version="0.1" byte_order="LittleEndian">
  <UnstructuredGrid>
    <FieldData>
      <DataArray type="Float32" Name="TIME"  NumberOfTuples="1" format="ascii"> 0.7994493729 </DataArray>
      <DataArray type="Int32"   Name="STEP"  NumberOfTuples="1" format="ascii"> 10720 </DataArray>
    </FieldData>
    <Piece NumberOfPoints="18081" NumberOfCells="18081">
      <Points>
        <DataArray type="Float32" NumberOfComponents="3" format="ascii">
 0.0082306474 -0.0004752532 -0.0002947652 0.0284663117 -0.0004250426 -0.0008914269 0.0690885360 0.0005555121 0.0002145078 0.1100626666 0.0012346987 -0.0009599684 0.1698961766 0.0000769472 -0.0010297033 0.2026623060 0.0000556385 -0.0008182155 0.2626031948 -0.0007250933 -0.0005499725 0.3130518301 0.0002726920 -0.0009117744 0.3614482540 -0.0005729440 0.0012440691 0.3885742370 -0.0013502987 0.0102179782 0.4223633189 -0.0014590542 0.0003491744 0.5004831111 0.0000837109 0.0054828523 0.5010474259 0.0052646623 0.0265753379 0.4985735092 0.0081556662 0.0375540627 0.4674335736 0.0066322512 0.0449495924 0.4590609549 0.0045193380 0.0395530515 0.4604069588 -0.0003460551 0.0417988666 0.4117868042 0.0038831968 0.0147290639 0.3780291925 0.0183535178 0.0268557859 0.3969925821 0.0366938321 0.0154758947 0.5008967983 -0.0035903447 0.0916533912 0.0324406783 0.0066830240 0.0019577895 0.0547086048 -0.0011490890 -0.0003664035 0.1022357112 -0.0003842353 -0.0008797903 0.1701296036 0.0048136834 -0.0005312484 0.2299123584 0.0027541411 -0.0010257323 0.2896594304 0.0076471922 -0.0001261557 0.3491964686 0.0033317906 0.0007680516 0.3698223509 0.0074438175 0.0024050124 0.3709707080 0.0037983058 0.0139328010 0.4201468034 0.0031234976 -0.0007888753 0.4825864581 0.0124974836 0.0274184273 0.4986075929 0.0077650986 -0.0020448343 0.4876891535 0.0079398137 0.0468852429 0.4855434406 0.0020333061 0.0479902584 0.4477127353 0.0068560066 0.0329743700 0.4417717930 0.0019395387 0.0323758332 0.4497147852 0.0061587942 0.0338984520 0.3692660738 0.0252288846 0.0319810948 0.3641575816 0.0166084562 0.0415304923 0.3698664294 0.0300512450 0.0338356782 0.4059383650 0.0376073461 0.0172295075 0.0203744656 0.0131609054 0.0007252717 0.0406259779 0.0033458300 0.0001652207 0.0553313984 0.0157846196 -0.0003017767 0.1239396746 0.0066700195 0.0000065976 0.1991461458 0.0146049111 -0.0007088179 0.2356306846 0.0195076323 0.0003505323 0.3029114858 0.0100581112 -0.0009489571 0.3637058942 0.0122267793 -0.0008500017 0.3802373246 0.0069284275 -0.0009945676 0.3902285020 0.0079784190 0.0042629770 0.4918432490 0.0104049455 0.0232392768 0.4880488461 0.0162750974 0.0342836881 0.5019060138 0.0262662597 0.0190303932 0.4192121238 0.0094924629 0.0042255784 0.4343244438 0.0061382312 0.0185933502 0.4784483407 0.0038612602 0.0459914079 0.4860568942 0.0046542354 0.0496930084 0.3503590593 0.0244966179 0.0482988320 0.4992335785 0.0163125096 0.0431161511 0.5010379769 0.0071076495 0.0407494606 0.5042501535 0.0193123821 0.0941122534 0.0427164384 0.0175964113 0.0002131306 0.0361702786 0.0128243171 -0.0000475470 0.0896823757 0.0178938484 0.0000925961 0.1614822821 0.0179602957 0.0002551199 0.2258905562 0.0163222447 0.0003190956 0.2884488748 0.0209417829 0.0012986611 0.3457085635 0.0206382159 0.0008061020 0.3671995321 0.0142895225 0.0108072173 0.3665843921 0.0124327147 0.0244977212 0.4206741066 0.0077574460 -0.0008134915 0.4995694176 0.0189719654 0.0270495274 0.5001315544 0.0221804118 0.0347807503 0.4292304540 0.0081697822 0.0116175180 0.3994121377 0.0082317814 0.0079012097 0.3880546260 0.0076857074 0.0132796116 0.4808583344 0.0129264228 0.0401410199 0.4046873591 0.0219991104 0.0160958112 0.3566447538 0.0189236401 0.0400618171 0.3112691120 0.0050715465 0.0568555868 0.3562583997 0.0261075072 0.0426377211 0.5016601226 0.0220930757 0.0478904577 0.0254665840 0.0171812962 -0.0004710793 0.0536485174 0.0210021231 0.0018085841 0.0990303213 0.0231493138 -0.0000558704 0.1734735067 0.0214751788 -0.0012302381 0.2047905746 0.0245906612 -0.0003460044 0.2566798793 0.0168595293 -0.0004013289 0.3414789195 0.0180449258 0.0003966166 0.3675205656 0.0186062937 0.0051599888 0.3715196364 0.0136761677 0.0122818919 0.4014518733 0.0108137464 0.0001904880 0.4831398999 0.0239996822 0.0273586309 0.4848525607 0.0190924919 0.0308172672 0.4897585893 0.0195576827 0.0394997237 0.4862268772 0.0193578088 0.0430120882 0.4476863899 0.0200416521 0.0292529365 0.4362112634 0.0313785671 0.0269880229 0.3753049014 0.0188307066 0.0299919868 0.3703805821 0.0098034910 0.0412394312 0.4329042367 0.0357664594 0.0260424444 0.3806088472 0.0402217182 0.0222048194 0.5012816245 0.0183208193 0.0481132908 0.0358980980 0.0272170226 -0.0002049908 0.0455591586 0.0216585979 0.0001451441 0.0944141681 0.0272935601 -0.0008030638 0.1615647392 0.0224072592 -0.0000429363 0.2265337649 0.0262012140 0.0004038172 0.3121831690 0.0187841913 -0.0008096535 0.3539573649 0.0279870858 0.0024877677 0.3643697267 0.0209711201 0.0050999329 0.3756396333 0.0284228509 0.0064066717 0.3877771464 0.0150905394 0.0017428875 0.4857759770 0.0232780358 0.0248474724 0.4938962305 0.0350888942 0.0332654710 0.5007488557 0.0354010756 0.0341688924 0.4924707164 0.0259768096 0.0435773653 0.4682924724 0.0283414306 0.0392509957 0.4991166710 0.0158212162 0.0442916415 0.3959499150 0.0237833489 0.0093187039 0.3345243033 0.0267149610 0.0548409961 0.4075563173 0.0480689261 0.0128614413 0.3782632383 0.0349510947 0.0235610238 0.5035202749 0.0319992351 0.1188876533 0.0440696628 0.0337503738 -0.0007632083 0.0624885319 0.0281434890 -0.0006977136 0.0953066880 0.0337749476 -0.0002473095 0.1890068698 0.0334864385 -0.0005678094 0.2384062855 0.0245678897 -0.0006129463 0.2933294660 0.0254725514 -0.0000016900 0.3395810216 0.0322670858 0.0005285464 0.3686084335 0.0272473392 0.0007964993 0.3670616913 0.0227956518 0.0170959172 0.3839129388 0.0286987756 0.0024439379 0.4864410554 0.0317757334 0.0268928956 0.4583154781 0.0321470484 0.0255706250 0.4808129589 0.0363860181 0.0357322776 0.4984000494 0.0460845544 0.0353963719 0.4471582670 0.0222444383 0.0253188314 0.4610829289 0.0374354564 0.0383170313 0.3472942326 0.0353243102 0.0428937760 0.3281131969 0.0405502256 0.0564217928 0.3378930752 0.0360844388 0.0529428770 0.3359477589 0.0216470212 0.0539702276 0.4131848337 0.0346773254 0.0194030661 0.0200708823 0.0290757009 0.0014058608 0.0665283543 0.0315082894 -0.0002332264 0.0967253828 0.0397263489 0.0004110850 0.1541896092 0.0348076503 0.0005849379 0.2221874483 0.0274146968 -0.0005797394 0.2635883183 0.0326971913 -0.0003536415 0.3418575746 0.0392218141 -0.0005627026 0.3677853881 0.0314589781 0.0040790730 0.3826780942 0.0351715914 -0.0000356499 0.3592570123 0.0256641554 0.0261880617 0.4935434052 0.0299227778 0.0253483068 0.5003772881 0.0383691234 -0.0011542389 0.4640018020 0.0387816173 0.0312019223 0.4936287519 0.0401151343 0.0433475043 0.4359438750 0.0366022978 0.0187681453 0.3974337565 0.0279564565 0.0080857293 0.4335861959 0.0416529583 0.0257110285 0.3581720256 0.0303507792 0.0319610600 0.4263871673 0.0352042999 0.0227173237 0.4025159558 0.0390193543 0.0158691814 0.3408667723 0.0381879407 0.0535742616 0.0304622800 0.0317770383 0.0009175877 0.0526380046 0.0354481450 0.0000492347 0.1001910175 0.0428604234 -0.0010819449 0.1829606249 0.0372274687 0.0001394688 0.2307174919 0.0348320102 0.0010093022 0.2914419686 0.0340070644 -0.0003066264 0.3358995099 0.0377923313 -0.0005853002 0.3690069435 0.0351475654 0.0043582478 0.3711914201 0.0329545169 0.0139262621 0.3545011079 0.0295985759 0.0347382788 0.4854818309 0.0378496692 0.0297510972 0.4958302381 0.0297118775 0.0275997027 0.4931520126 0.0389359184 0.0389846214 0.4662398738 0.0276225814 0.0064829709 0.4649060530 0.0406089359 0.0406995690 0.4954829099 0.0465321883 0.0462018344 0.4071300548 0.0545402131 0.0163753429 0.3172023606 0.0458712802 0.0600753044 0.3532410293 0.0543944071 0.0505949477 0.3689969722 0.0444161565 0.0337130058 0.3407089353 0.0434660858 0.0535352847 0.0178111394 0.0357354152 -0.0001991702 0.0425960649 0.0444163694 0.0003342907 0.0674081832 0.0417185424 -0.0007619979 0.1623052363 0.0361465990 -0.0012462670 0.2331547355 0.0395864173 -0.0009708726 0.2738247420 0.0361177884 0.0004620443 0.3453897345 0.0402763579 0.0022147629 0.3689470829 0.0360742683 0.0000196614 0.3781531275 0.0364371450 0.0010546365 0.3851911797 0.0383406207 0.0036661773 0.4733501356 0.0319439209 0.0245752740 0.5005225787 0.0442506184 0.0205525344 0.4821568457 0.0455967209 0.0373933151 0.4144197603 0.0352109133 0.0047890890 0.4372606178 0.0457010837 0.0231216687 0.4201469765 0.0393297293 0.0145303121 0.4234910483 0.0514965184 0.0189644120 0.3798802993 0.0535405517 0.0259958942 0.4686199844 0.0536143518 0.0403534303 0.3647158830 0.0533709245 0.0418089604 0.5039424227 0.0456634146 0.1551538983 0.0199029299 0.0410003833 0.0008854096 0.0438632307 0.0492992201 0.0001510846 0.0915147884 0.0454174126 -0.0001191907 0.1778513741 0.0423920507 0.0004875562 0.2196045072 0.0444361895 0.0003796734 0.2772528287 0.0409875652 0.0000629723 0.3381706806 0.0457285288 -0.0017543897 0.3711883152 0.0405796068 0.0003311765 0.3619108006 0.0436378828 0.0248291960 0.3720591483 0.0498965324 0.0135561054 0.4828488052 0.0478841792 0.0247155834 0.5005494465 0.0448357381 0.0322189880 0.4713286047 0.0560686574 0.0331039585 0.4468382374 0.0352506168 -0.0007651997 0.4860114123 0.0516377998 0.0476065636 0.4079317946 0.0547674036 0.0140219657 0.3899454640 0.0517129235 0.0105428420 0.3234634943 0.0540063342 0.0561187178 0.4332890378 0.0598702592 0.0198087553 0.3721775234 0.0533756268 0.0366771328 0.4776940524 0.0496720467 0.2005434946 0.0319517216 0.0413079608 0.0009880187 0.0412720559 0.0541119895 -0.0011546727 0.0879393527 0.0528171056 -0.0007705625 0.1595002482 0.0406980845 0.0008839648 0.2220416626 0.0532225483 0.0006640188 0.2888092126 0.0511103391 0.0003403076 0.3494368594 0.0482860803 -0.0001622378 0.3644592151 0.0424333697 0.0096201646 0.3790336047 0.0545071996 0.0006776061 0.3913270033 0.0532977444 -0.0002437126 0.4781607074 0.0577754477 0.023900
[...]
      <PointData Scalars="smoothLength">
        <DataArray type="Float32" Name="smoothLength" format="ascii">
 0.0065000000 0.0065000000 0.0065000000 0.0065000000 0.0065000000 0.0065000000 0.0065000000 0.0065000000 0.0065000000 0.0065000000 0.0065000000 0.0065000000 0.0065000000 0.0065000000 0.0065000000 0.0065000000 0.0065000000 0.0065000000 0.0065000000 0.0065000000 0.0065000000 0.0065000000 0.0065000000 0.0065000000 0.0065000000 0.0065000000 0.0065000000 0.0065000000 0.0065000000 0.0065000000 0.0065000000 0.0065000000 0.0065000000 0.0065000000 0.0065000000 0.0065000000 0.0065000000 0.0065000000 0.0065000000 0.0065000000 0.0065000000 0.0065000000 0.0065000000 0.0065000000 0.0065000000 0.0065000000 0.0065000000 0.0065000000 0.0065000000 0.0065000000 0.0065000000 0.0065000000 0.0065000000 0.0065000000 0.0065000000 0.0065000000 0.0065000000 0.0065000000 0.0065000000 0.0065000000 0.0065000000 0.0065000000 0.0065000000 0.0065000000 0.0065000000 0.0065000000 0.0065000000 0.0065000000 0.0065000000 0.0065000000 0.0065000000 0.0065000000 0.0065000000 0.0065000000 0.0065000000 0.0065000000 0.0065000000 0.0065000000 0.0065000000 0.0065000000 0.0065000000 0.0065000000 0.0065000000 0.0065000000 0.0065000000 0.0065000000 0.0065000000 0.0065000000 0.0065000000 0.0065000000 0.0065000000 0.0065000000 0.0065000000 0.0065000000 0.0065000000 0.0065000000 0.0065000000 0.0065000000 0.0065000000 0.0065000000 0.0065000000 0.0065000000 0.0065000000 0.0065000000 0.0065000000 0.0065000000 0.0065000000 0.0065000000 0.0065000000 0.0065000000 0.0065000000 0.0065000000 0.0065000000 0.0065000000 0.0065000000 0.0065000000 0.0065000000 0.0065000000 0.0065000000 0.0065000000 0.0065000000 0.0065000000 0.0065000000 0.0065000000 0.0065000000 0.0065000000 0.0065000000 0.0065000000 0.0065000000 0.0065000000 0.0065000000 0.0065000000 0.0065000000 0.0065000000 0.0065000000 0.0065000000 0.0065000000 0.0065000000 0.0065000000 0.0065000000 0.0065000000 0.0065000000 0.0065000000 0.0065000000 0.0065000000 0.0065000000 0.0065000000 0.0065000000 0.0065000000 0.0065000000 0.0065000000 0.0065000000 0.0065000000 0.0065000000 0.0065000000 0.0065000000 0.0065000000 0.0065000000 0.0065000000 0.0065000000 0.0065000000 0.0065000000 0.0065000000 0.0065000000 0.0065000000 0.0065000000 0.0065000000 0.0065000000 0.0065000000 0.0065000000 0.0065000000 0.0065000000 0.0065000000 0.0065000000 0.0065000000 0.0065000000 0.0065000000 0.0065000000 0.0065000000 0.0065000000 0.0065000000 0.0065000000 0.0065000000 0.0065000000 0.0065000000 0.0065000000 0.0065000000 0.0065000000 0.0065000000 0.0065000000 0.0065000000 0.0065000000 0.0065000000 0.0065000000 0.0065000000 0.0065000000 0.0065000000 0.0065000000 0.0065000000 0.0065000000 0.0065000000 0.0065000000 0.0065000000 0.0065000000 0.0065000000 0.0065000000 0.0065000000 0.0065000000 0.0065000000 0.0065000000 0.0065000000 0.0065000000 0.0065000000 0.0065000000 0.0065000000 0.0065000000 0.0065000000 0.0065000000 0.0065000000 0.0065000000 0.0065000000 0.0065000000 0.0065000000 0.0065000000 0.0065000000 0.0065000000 0.0065000000 0.0065000000 0.0065000000 0.0065000000 0.0065000000 0.0065000000 0.0065000000 0.0065000000 0.0065000000 0.0065000000 0.0065000000 0.0065000000 0.0065000000 0.0065000000 0.0065000000 0.0065000000 0.0065000000 0.0065000000 0.0065000000 0.0065000000 0.0065000000 0.0065000000 0.0065000000 0.0065000000 0.0065000000 0.0065000000 0.0065000000 0.0065000000 0.0065000000 0.0065000000 0.0065000000 0.0065000000 0.0065000000 0.0065000000 0.0065000000 0.0065000000 0.0065000000 0.0065000000 0.0065000000 0.0065000000 0.0065000000 0.0065000000 0.0065000000 0.0065000000 0.0065000000 0.0065000000 0.0065000000 0.0065000000 0.0065000000 0.0065000000 0.0065000000 0.0065000000 0.0065000000 0.0065000000 0.0065000000 0.0065000000 0.0065000000 0.0065000000 0.0065000000 0.0065000000 0.0065000000 0.0065000000 0.0065000000 0.0065000000 0.0065000000 0.0065000000 0.0065000000 0.0065000000 0.0065000000 0.0065000000 0.0065000000 0.0065000000 0.0065000000 0.0065000000 0.0065000000 0.0065000000 0.0065000000 0.0065000000 0.0065000000 0.0065000000 0.0065000000 0.0065000000 0.0065000000 0.0065000000 0.0065000000 0.0065000000 0.0065000000 0.0065000000 0.0065000000 0.0065000000 0.0065000000 0.0065000000 0.0065000000 0.0065000000 0.0065000000 0.0065000000 0.0065000000 0.0065000000 0.0065000000 0.0065000000 0.0065000000 0.0065000000 0.0065000000 0.0065000000 0.0065000000 0.0065000000 0.0065000000 0.0065000000 0.0065000000 0.0065000000 0.0065000000 0.0065000000 0.0065000000 0.0065000000 0.0065000000 0.0065000000 0.0065000000 0.0065000000 0.0065000000 0.0065000000 0.0065000000 0.0065000000 0.0065000000 0.0065000000 0.0065000000 0.0065000000 0.0065000000 0.0065000000 0.0065000000 0.0065000000 0.0065000000 0.0065000000 0.0065000000 0.0065000000 0.0065000000 0.0065000000 0.0065000000 0.0065000000 0.0065000000 0.0065000000 0.0065000000 0.0065000000 0.0065000000 0.0065000000 0.0065000000 0.0065000000 0.0065000000 0.0065000000 0.0065000000 0.0065000000 0.0065000000 0.0065000000 0.0065000000 0.0065000000 0.0065000000 0.0065000000 0.0065000000 0.0065000000 0.0065000000 0.0065000000 0.0065000000 0.0065000000 0.0065000000 0.0065000000 0.0065000000 0.0065000000 0.0065000000 0.0065000000 0.0065000000 0.0065000000 0.0065000000 0.0065000000 0.0065000000 0.0065000000 0.0065000000 0.0065000000 0.0065000000 0.0065000000 0.0065000000 0.0065000000 0.0065000000 0.0065000000 0.0065000000 0.0065000000 0.0065000000 0.0065000000 0.0065000000 0.0065000000 0.0065000000 0.0065000000 0.0065000000 0.0065000000 0.0065000000 0.0065000000 0.0065000000 0.0065000000 0.0065000000 0.0065000000 0.0065000000 0.0065000000 0.0065000000 0.0065000000 0.0065000000 0.0065000000 0.0065000000 0.0065000000 0.0065000000 0.0065000000 0.0065000000 0.0065000000 0.0065000000 0.0065000000 0.0065000000 0.0065000000 0.0065000000 0.0065000000 0.0065000000 0.0065000000 0.0065000000 0.0065000000 0.0065000000 0.0065000000 0.0065000000 0.0065000000 0.0065000000 0.0065000000 0.0065000000 0.0065000000 0.0065000000 0.0065000000 0.0065000000 0.0065000000 0.0065000000 0.0065000000 0.0065000000 0.0065000000 0.0065000000 0.0065000000 0.0065000000 0.0065000000 0.0065000000 0.0065000000 0.0065000000 0.0065000000 0.0065000000 0.0065000000 0.0065000000 0.0065000000 0.0065000000 0.0065000000 0.0065000000 0.0065000000 0.0065000000 0.0065000000 0.0065000000 0.0065000000 0.0065000000 0.0065000000 0.0065000000 0.0065000000 0.0065000000 0.0065000000 0.0065000000 0.0065000000 0.0065000000 0.0065000000 0.0065000000 0.0065000000 0.0065000000 0.0065000000 0.0065000000 0.0065000000 0.0065000000 0.0065000000 0.0065000000 0.0065000000 0.0065000000 0.0065000000 0.0065000000 0.0065000000 0.0065000000 0.0065000000 0.0065000000 0.0065000000 0.0065000000 0.0065000000 0.0065000000 0.0065000000 0.0065000000 0.0065000000 0.0065000000 0.0065000000 0.0065000000 0.0065000000 0.0065000000 0.0065000000 0.0065000000 0.0065000000 0.0065000000 0.0065000000 0.0065000000 0.0065000000 0.0065000000 0.0065000000 0.0065000000 0.0065000000 0.0065000000 0.0065000000 0.0065000000 0.0065000000 0.0065000000 0.0065000000 0.0065000000 0.0065000000 0.0065000000 0.0065000000 0.0065000000 0.0065000000 0.0065000000 0.0065000000 0.0065000000 0.0065000000 0.0065000000 0.0065000000 0.0065000000 0.0065000000 0.0065000000 0.0065000000 0.0065000000 0.0065000000 0.0065000000 0.0065000000 0.0065000000 0.0065000000 0.0065000000 0.0065000000 0.0065000000 0.0065000000 0.0065000000 0.0065000000 0.0065000000 0.0065000000 0.0065000000 0.0065000000 0.0065000000 0.0065000000 0.0065000000 0.0065000000 0.0065000000 0.0065000000 0.0065000000 0.0065000000 0.0065000000 0.0065000000 0.0065000000 0.0065000000 0.0065000000 0.0065000000 0.0065000000 0.0065000000 0.0065000000 0.0065000000 0.0065000000 0.0065000000 0.0065000000 0.0065000000 0.0065000000 0.0065000000 0.0065000000 0.0065000000 0.0065000000 0.0065000000 0.0065000000 0.0065000000 0.0065000000 0.0065000000 0.0065000000 0.0065000000 0.0065000000 0.0065000000 0.0065000000 0.0065000000 0.0065000000 0.0065000000 0.0065000000 0.0065000000 0.0065000000 0.0065000000 0.0065000000 0.0065000000 0.0065000000 0.0065000000 0.0065000000 0.0065000000 0.0065000000 0.0065000000 0.0065000000 0.0065000000 0.0065000000 0.0065000000 0.0065000000 0.0065000000 0.0065000000 0.0065000000 0.0065000000 0.0065000000 0.0065000000 0.0065000000 0.0065000000 0.0065000000 0.0065000000 0.0065000000 0.0065000000 0.0065000000 0.0065000000 0.0065000000 0.0065000000 0.0065000000 0.0065000000 0.0065000000 0.0065000000 0.0065000000 0.0065000000 0.0065000000 0.0065000000 0.0065000000 0.0065000000 0.0065000000 0.0065000000 0.0065000000 0.0065000000 0.0065000000 0.0065000000 0.0065000000 0.0065000000 0.0065000000 0.0065000000 0.0065000000 0.0065000000 0.0065000000 0.0065000000 0.0065000000 0.0065000000 0.0065000000 0.0065000000 0.0065000000 0.0065000000 0.0065000000 0.0065000000 0.0065000000 0.0065000000 0.0065000000 0.0065000000 0.0065000000 0.0065000000 0.0065000000 0.0065000000 0.0065000000 0.0065000000 0.0065000000 0.0065000000 0.0065000000 0.0065000000 0.0065000000 0.0065000000 0.0065000000 0.0065000000 0.0065000000 0.0065000000 0.0065000000 0.0065000000 0.0065000000 0.0065000000 0.0065000000 0.0065000000 0.0065000000 0.0065000000 0.0065000000 0.0065000000 0.0065000000 0.0065000000 0.0065000000 0.0065000000 0.0065000000 0.0065000000 0.0065000000 0.0065000000 0.0065000000 0.0065000000 0.0065000000 0.0065000000 0.0065000000 0.0065000000 0.0065000000 0.0065000000 0.0065000000 0.0065000000 0.0065000000 0.0065000000 0.0065000000 0.0065000000 0.0065000000 0.0065000000 0.0065000000 0.0065000000 0.0065000000 0.0065000000 0.0065000000 0.0065000000 0.0065000000 0.0065000000 0.0065000000 0.0065000000 0.0065000000 0.0065000000 0.0065000000 0.0065000000 0.0065000000 0.0065000000 0.0065000000 0.0065000000 0.0065000000 0.0065000000 0.0065000000 0.0065000000 0.0065000000 0.0065000000 0.0065000000 0.0065000000 0.0065000000 0.0065000000 0.0065000000 0.0065000000 0.0065000000 0.0065000000 0.0065000000 0.0065000000 0.0065000000 0.0065000000 0.0065000000 0.0065000000 0.0065000000 0.0065000000 0.0065000000 0.0065000000 0.0065000000 0.0065000000 0.0065000000 0.0065000000 0.0065000000 0.0065000000 0.0065000000 0.0065000000 0.0065000000 0.0065000000 0.0065000000 0.0065000000 0.0065000000 0.0065000000 0.0065000000 0.0065000000 0.0065000000 0.0065000000 0.0065000000 0.0065000000 0.0065000000 0.0065000000 0.0065000000 0.0065000000 0.0065000000 0.0065000000 0.0065000000 0.0065000000 0.0065000000 0.0065000000 0.0065000000 0.0065000000 0.0065000000 0.0065000000 0.0065000000 0.0065000000 0.0065000000 0.0065000000 0.0065000000 0.0065000000 0.0065000000 0.0065000000 0.0065000000 0.0065000000 0.0065000000 0.0065000000 0.0065000000 0.0065000000 0.0065000000 0.0065000000 0.0065000000 0.0065000000 0.0065000000 0.0065000000 0.0065000000 0.0065000000 0.0065000000 0.0065000000 0.0065000000 0.0065000000 0.0065000000 0.0065000000 0.0065000000 0.0065000000 0.0065000000 0.0065000000 0.0065000000 0.0065000000 0.0065000000 0.0065000000 0.0065000000 0.0065000000 0.0065000000 0.0065000000 0.0065000000 0.0065000000 0.0065000000 0.0065000000 0.0065000000 0.0065000000 0.0065000000 0.0065000000 0.0065000000 0.0065000000 0.0065000000 0.0065000000 0.0065000000 0.0065000000 0.0065000000 0.0065000000 0.0065000000 0.0065000000 0.0065000000 0.0065000000 0.0065000000 0.0065000000 0.0065000000 0.0065000000 0.0065000000 0.0065000000 0.0065000000 0.0065000000 0.0065000000 0.0065000000 0.0065000000 0.0065000000 0.0065000000 0.0065000000 0.0065000000 0.0065000000 0.0065000000 0.0065000000 0.0065000000 0.0065000000 0.0065000000 0.0065000000 0.0065000000 0.0065000000 0.0065000000 0.0065000000 0.0065000000 0.0065000000 0.0065000000 0.0065000000 0.0065000000 0.0065000000 0.0065000000 0.0065000000 0.0065000000 0.0065000000 0.0065000000 0.0065000000 0.0065000000 0.0065000000 0.0065000000 0.0065000000 0.0065000000 0.0065000000 0.0065000000 0.0065000000 0.0065000000 0.0065000000 0.0065000000 0.0065000000 0.0065000000 0.0065000000 0.0065000000 0.0065000000 0.0065000000 0.0065000000 0.0065000000 0.0065000000 0.0065000000 0.0065000000 0.0065000000 0.0065000000 0.0065000000 0.0065000000 0.0065000000 0.0065000000 0.0065000000 0.0065000000 0.0065000000 0.0065000000 0.0065000000 0.0065000000 0.0065000000 0.0065000000 0.0065000000 0.0065000000 0.0065000000 0.0065000000 0.0065000000 0.0065000000 0.0065000000 0.0065000000 0.0065000000 0.0065000000 0.0065000000 0.0065000000 0.0065000000 0.0065000000 0.0065000000 0.0065000000 0.0065000000 0.0065000000 0.0065000000 0.0065000000 0.0065000000 0.0065000000 0.0065000000 0.0065000000 0.0065000000 0.0065000000 0.0065000000 0.0065000000 0.0065000000 0.0065000000 0.0065000000 0.0065000000 0.0065000000 0.0065000000 0.0065000000 0.0065000000 0.0065000000 0.0065000000 0.0065000000 0.0065000000 0.0065000000 0.0065000000 0.0065000000 0.0065000000 0.0065000000 0.0065000000 0.0065000000 0.0065000000 0.0065000000 0.0065000000 0.0065000000 0.0065000000 0.0065000000 0.0065000000 0.0065000000 0.0065000000 0.0065000000 0.0065000000 0.0065000000 0.0065000000 0.0065000000 0.0065000000 0.0065000000 0.0065000000 0.0065000000 0.0065000000 0.0065000000 0.0065000000 0.0065000000 0.0065000000 0.0065000000 0.0065000000 0.0065000000 0.0065000000 0.0065000000 0.0065000000 0.0065000000 0.0065000000 0.0065000000 0.0065000000 0.0065000000 0.0065000000 0.0065000000 0.0065000000 0.0065000000 0.0065000000 0.0065000000 0.0065000000 0.0065000000 0.0065000000 0.0065000000 0.0065000000 0.0065000000 0.0065000000 0.0065000000 0.0065000000 0.0065000000 0.0065000000 0.0065000000 0.0065000000 0.0065000000 0.0065000000 0.0065000000 0.0065000000 0.0065000000 0.0065000000 0.0065000000 0.0065000000 0.0065000000 0.0065000000 0.0065000000 0.0065000000 0.0065000000 0.0065000000 0.0065000000 0.0065000000 0.0065000000 0.0065000000 0.0065000000 0.0065000000 0.0065000000 0.0065000000 0.0065000000 0.0065000000 0.0065000000 0.0065000000 0.0065000000 0.0065000000 0.0065000000 0.0065000000 0.0065000000 0.0065000000 0.0065000000 0.0065000000 0.0065000000 0.0065000000 0.0065000000 0.0065000000 0.0065000000 0.0065000000 0.0065000000 0.0065000000 0.0065000000 0.0065000000 0.0065000000 0.0065000000 0.0065000000 0.0065000000 0.0065000000 0.0065000000 0.0065000000 0.0065000000 0.0065000000 0.0065000000 0.0065000000 0.0065000000 0.0065000000 0.0065000000 0.0065000000 0.0065000000 0.0065000000 0.0065000000 0.0065000000 0.0065000000 0.0065000000 0.0065000000 0.0065000000 0.0065000000 0.0065000000 0.0065000000 0.0065000000 0.0065000000 0.0065000000 0.0065000000 0.0065000000 0.0065000000 0.0065000000 0.0065000000 0.0065000000 0.0065000000 0.0065000000 0.0065000000 0.0065000000 0.0065000000 0.0065000000 0.0065000000 0.0065000000 0.0065000000 0.0065000000 0.0065000000 0.0065000000 0.0065000000 0.0065000000 0.0065000000 0.0065000000 0.0065000000 0.0065000000 0.0065000000 0.0065000000 0.0065000000 0.0065000000 0.0065000000 0.0065000000 0.0065000000 0.0065000000 0.0065000000 0.0065000000 0.0065000000 0.0065000000 0.0065000000 0.0065000000 0.0065000000 0.0065000000 0.0065000000 0.0065000000 0.0065000000 0.0065000000 0.0065000000 0.0065000000 0.0065000000 0.0065000000 0.0065000000 0.0065000000 0.0065000000 0.0065000000 0.0065000000 0.0065000000 0.0065000000 0.0065000000 0.0065000000 0.0065000000 0.0065000000 0.0065000000 0.0065000000 0.0065000000 0.0065000000 0.0065000000 0.0065000000 0.0065000000 0.0065000000 0.0065000000 0.0065000000 0.0065000000 0.0065000000 0.0065000000 0.0065000000 0.0065000000 0.0065000000 0.0065000000 0.0065000000 0.0065000000 0.0065000000 0.0065000000 0.0065000000 0.0065000000 0.0065000000 0.0065000000 0.0065000000 0.0065000000 0.0065000000 0.0065000000 0.0065000000 0.0065000000 0.0065000000 0.0065000000 0.0065000000 0.0065000000 0.0065000000 0.0065000000 0.0065000000 0.0065000000 0.0065000000 0.0065000000 0.0065000000 0.0065000000 0.0065000000 0.0065000000 0.0065000000 0.0065000000 0.0065000000 0.0065000000 0.0065000000 0.0065000000 0.0065000000 0.0065000000 0.0065000000 0.0065000000 0.0065000000 0.0065000000 0.0065000000 0.0065000000 0.0065000000 0.0065000000 0.0065000000 0.0065000000 0.0065000000 0.0065000000 0.0065000000 0.0065000000 0.0065000000 0.0065000000 0.0065000000 0.0065000000 0.0065000000 0.0065000000 0.0065000000 0.0065000000 0.0065000000 0.0065000000 0.0065000000 0.0065000000 0.0065000000 0.0065000000 0.0065000000 0.0065000000 0.0065000000 0.0065000000 0.0065000000 0.0065000000 0.0065000000 0.0065000000 0.0065000000 0.0065000000 0.0065000000 0.0065000000 0.0065000000 0.0065000000 0.0065000000 0.0065000000 0.0065000000 0.0065000000 0.0065000000 0.0065000000 0.0065000000 0.0065000000 0.0065000000 0.0065000000 0.0065000000 0.0065000000 0.0065000000 0.0065000000 0.0065000000 0.0065000000 0.0065000000 0.0065000000 0.0065000000 0.0065000000 0.0065000000 0.0065000000 0.0065000000 0.0065000000 0.0065000000 0.0065000000 0.0065000000 0.0065000000 0.0065000000 0.0065000000 0.0065000000 0.0065000000 0.0065000000 0.0065000000 0.0065000000 0.0065000000 0.0065000000 0.0065000000 0.0065000000 0.0065000000 0.0065000000 0.0065000000 0.0065000000 0.0065000000 0.0065000000 0.0065000000 0.0065000000 0.0065000000 0.0065000000 0.0065000000 0.0065000000 0.0065000000 0.0065000000 0.0065000000 0.0065000000 0.0065000000 0.0065000000 0.0065000000 0.0065000000 0.0065000000 0.0065000000 0.0065000000 0.0065000000 0.0065000000 0.0065000000 0.0065000000 0.0065000000 0.0065000000 0.0065000000 0.0065000000 0.0065000000 0.0065000000 0.0065000000 0.0065000000 0.0065000000 0.0065000000 0.0065000000 0.0065000000 0.0065000000 0.0065000000 0.0065000000 0.0065000000 0.0065000000 0.0065000000 0.0065000000 0.0065000000 0.0065000000 0.0065000000 0.0065000000 0.0065000000 0.0065000000 0.0065000000 0.0065000000 0.0065000000 0.0065000000 0.0065000000 0.0065000000 0.0065000000 0.0065000000 0.0065000000 0.0065000000 0.0065000000 0.0065000000 0.0065000000 0.0065000000 0.0065000000 0.0065000000 0.0065000000 0.0065000000 0.0065000000 0.0065000000 0.0065000000 0.0065000000 0.0065000000 0.0065000000 0.0065000000 0.0065000000 0.0065000000 0.0065000000 0.0065000000 0.0065000000 0.0065000000 0.0065000000 0.0065000000 0.0065000000 0.0065000000 0.0065000000 0.0065000000 0.0065000000 0.0065000000 0.0065000000 0.0065000000 0.0065000000 0.0065000000 0.0065000000 0.0065000000 0.0065000000 0.0065000000 0.0065000000 0.0065000000 0.0065000000 0.0065000000 0.0065000000 0.0065000000 0.0065000000 0.0065000000 0.0065000000 0.0065000000 0.0065000000 0.0065000000 0.0065000000 0.0065000000 0.0065000000 0.0065000000 0.0065000000 0.0065000000 0.0065000000 0.0065000000 0.0065000000 0.0065000000 0.0065000000 0.0065000000 0.0065000000 0.0065000000 0.0065000000 0.0065000000 0.0065000000 0.0065000000 0.0065000000 0.0065000000 0.0065000000 0.0065000000 0.0065000000 0.0065000000 0.0065000000 0.0065000000 0.0065000000 0.0065000000 0.0065000000 0.0065000000 0.0065000000 0.0065000000 0.0065000000 0.0065000000 0.0065000000 0.0065000000 0.0065000000 0.0065000000 0.0065000000 0.0065000000 0.0065000000 0.0065000000 0.0065000000 0.0065000000 0.0065000000 0.0065000000 0.0065000000 0.0065000000 0.0065000000 0.0065000000 0.0065000000 0.0065000000 0.0065000000 0.0065000000 0.0065000000 0.0065000000 0.0065000000 0.0065000000 0.0065000000 0.0065000000 0.0065000000 0.0065000000 0.0065000000 0.0065000000 0.0065000000 0.0065000000 0.0065000000 0.0065000000 0.0065000000 0.0065000000 0.0065000000 0.0065000000 0.0065000000 0.0065000000 0.0065000000 0.0065000000 0.0065000000 0.0065000000 0.0065000000 0.0065000000 0.0065000000 0.0065000000 0.0065000000 0.0065000000 0.0065000000 0.0065000000 0.0065000000 0.0065000000 0.0065000000 0.0065000000 0.0065000000 0.0065000000 0.0065000000 0.0065000000 0.0065000000 0.0065000000 0.0065000000 0.0065000000 0.0065000000 0.0065000000 0.0065000000 0.0065000000 0.0065000000 0.0065000000 0.0065000000 0.0065000000 0.0065000000 0.0065000000 0.0065000000 0.0065000000 0.0065000000 0.0065000000 0.0065000000 0.006500000