<?xml version="1.0"?>
<VTKFile type="UnstructuredGrid" version="0.1" byte_order="LittleEndian">
  <UnstructuredGrid>
    <FieldData>
      <DataArray type="Float32" Name="TIME"  NumberOfTuples="1" format="ascii"> 2.7481072192 </DataArray>
      <DataArray type="Int32"   Name="STEP"  NumberOfTuples="1" format="ascii"> 36850 </DataArray>
    </FieldData>
    <Piece NumberOfPoints="18081" NumberOfCells="18081">
      <Points>
        <DataArray type="Float32" NumberOfComponents="3" format="ascii">
 0.1169717529 0.0232480592 0.0000768245 0.1195614452 0.0010213455 0.0063934998 0.0717616841 0.0002188515 0.0115585788 0.2803411629 0.0184085617 0.0069959557 0.2510635271 0.0217734123 0.0147474968 0.1504267903 0.0005616917 0.0011737714 0.3724987565 0.0002910843 0.0028151510 0.3874680554 0.0221648299 0.0004221763 0.4557161649 0.0039639387 0.0249250588 0.2320124594 0.0023774398 0.0189174632 0.2795793037 0.0219788878 0.0035042233 0.4330607418 0.0562741057 0.0291942856 0.4690358015 0.0459138875 0.0007400961 0.4347289859 0.0702047615 0.0244839941 0.4400128960 0.0127174681 0.0179963661 0.4220249500 0.0388086728 0.0003534012 0.4237474058 0.0005179466 0.0112499375 0.3813500247 0.0398060190 0.0087884848 0.2062963734 0.0200710372 0.0220963843 0.4632527879 0.0040753408 0.0302398402 0.3632059535 0.0522698034 0.0277579872 0.0517286150 0.0113259320 0.0002936618 0.0329164669 0.0116726784 0.0006147375 0.0018116621 0.0765551365 0.0005678029 0.0136734822 0.0264314525 0.0068733477 0.2855265361 0.0031567031 0.0191430915 0.3349827500 0.0101316777 0.0000439898 0.3261058489 0.0034492424 -0.0003588797 0.4755795173 0.0019906232 0.0102935907 0.4438372658 0.0117086565 0.0311125575 0.4212273317 0.0562395934 0.0051122425 0.4063443032 0.0271575342 0.0043144929 0.3936437063 0.0680726173 0.0006172277 0.4649632855 0.0690617259 0.0270314978 0.4394311519 0.0374793031 0.0152745406 0.4167636279 0.0090995350 0.0191225399 0.4707254533 0.0218265760 0.0127384999 0.4026372226 0.0066805330 0.0089426465 0.2046432178 0.0047299062 0.0232500942 0.2225322854 0.0233415429 0.0136040878 0.0331425989 0.0082403664 0.0051380453 0.3597423799 0.0230839252 0.0218221913 0.2004707700 0.0001749440 0.0023156161 0.1291423593 0.0043233434 0.0004121699 0.1185574529 0.0027983366 -0.0000710026 0.0572065214 0.0104325551 0.0006951733 0.2465120429 0.0015706425 0.0172006615 0.3628223299 0.0089188466 0.0003605007 0.3822747368 0.0453652149 0.0002165261 0.2813941044 0.0432784486 0.0229556629 0.2211567742 0.0292442775 0.0253016610 0.3456478033 0.0013177213 -0.0002686228 0.4736158004 0.0531511447 0.0006801421 0.4031835828 0.0743571502 0.0099328609 0.3913376812 0.0720088338 0.0031894977 0.4327836696 0.0330279708 0.0173721404 0.3968560189 0.0476984936 0.0186807590 0.3047460758 0.0008965600 0.0201677446 0.4511587136 0.0166216936 0.0244439517 0.4653461850 0.0107449917 0.0300440048 0.4786375208 0.0112425844 0.0272959089 0.3537830472 0.0272770103 0.0103884773 0.2757534884 0.0606959327 0.0263675229 0.0707533788 0.0183519464 0.0002477031 0.1674397359 0.0098344459 0.0015995214 0.1463230351 0.0111754273 0.0126815656 0.2304490468 0.0099248482 0.0167336678 0.3065228815 0.0231066581 0.0192369028 0.3287856192 0.0053611536 0.0162081095 0.3852118643 0.0096572675 0.0062145954 0.3253569824 0.0115535111 0.0081391798 0.4987978576 0.0143028135 0.0088941557 0.4700528470 0.0369657200 0.0217406468 0.4070569947 0.0853557168 0.0060731319 0.3698095114 0.0658431458 0.0054708954 0.4002003663 0.0719214683 0.0196924044 0.4227773352 0.0233295749 0.0210280283 0.3597956642 0.0183175101 0.0244079922 0.4026932216 0.0445332535 0.0221778364 0.0741611096 0.0140383979 0.0096942832 0.2402545750 0.0293283800 0.0140997070 0.0512018123 0.0085151406 0.0093278867 0.4217792347 0.0786851144 0.0199836679 0.3569026013 0.0233948968 0.0134538890 0.1282653315 0.0206214821 0.0007042715 0.1648205497 0.0004413361 0.0008946318 0.2786368090 0.0082079809 0.0105945898 0.1695903559 0.0020411993 0.0012782630 0.0854819188 0.0086516685 0.0010156114 0.3054403634 0.0231386056 0.0063227815 0.3549494362 0.0304135589 -0.0000204406 0.4731803974 0.0187966309 0.0164512533 0.2340818667 0.0453987536 0.0249461765 0.4694150621 0.0286231445 0.0007780591 0.4721566942 0.0530357261 0.0100155921 0.3418217302 0.0568763529 0.0135912775 0.3936783007 0.0472282604 0.0001700121 0.4451980250 0.0842054293 0.0107867807 0.4004178559 0.0107106893 0.0131007690 0.1943841767 0.0142961350 0.0191000625 0.3441329046 0.0184846710 0.0227906678 0.2612323795 0.0415200075 0.0245216558 0.4583605033 0.0086649967 0.0295225091 0.3940906416 0.0238626246 0.0304105053 0.3994084280 0.0686416501 0.0282793126 0.0921628975 0.0289945083 0.0009590198 0.1528623030 0.0242950949 -0.0001604679 0.2103940227 0.0000269609 0.0023948361 0.0875784540 0.0009763147 0.0063110733 0.2144526550 0.0014609729 0.0005977510 0.2697478673 0.0084588992 -0.0001957815 0.3979220739 0.0099724257 0.0004362222 0.4802919778 0.0009147822 0.0014673270 0.3105949716 0.0265370660 0.0191873661 0.3489499639 0.0191880973 0.0187084613 0.3687035566 0.0481878859 0.0083101260 0.3403920516 0.0569876569 0.0046939559 0.3790675879 0.0632640607 0.0234314434 0.4200544013 0.0667709773 0.0169812865 0.4476903171 0.0194653263 0.0005024523 0.2081350276 0.0273364752 0.0157854422 0.2659645763 0.0230376357 0.0001111030 0.0065128804 0.0110456186 0.0135118939 0.0874468631 0.0102029105 0.0091945940 0.4246257735 0.0174033390 0.0085880775 0.3865767432 0.0357928267 0.0077696818 0.2609128377 0.0075191151 0.0053697587 0.1746648574 0.0099060644 0.0051255866 0.1455740507 0.0007835656 0.0004345125 0.0124270883 0.0276532696 0.0000850404 0.1928168729 0.0199825890 0.0091879703 0.2803171329 0.0019204647 0.0012543976 0.4321802862 0.0384049020 0.0060775528 0.2801908167 0.0331894704 0.0046746429 0.2837068609 0.0047134318 0.0005716361 0.4632287610 0.0581900486 0.0007297675 0.4390369874 0.0075133366 0.0003934216 0.4221836649 0.0887696752 0.0005932463 0.3793984522 0.0549717870 0.0090920057 0.4121445810 0.0819043281 0.0190034344 0.3720610987 0.0199612498 0.0215193239 0.3424065290 0.0273764508 0.0279673687 0.1745440139 0.0159733762 0.0077824772 0.2242727413 0.0460888038 0.0242583423 0.0163888196 0.0310697529 0.0146745159 0.4222736555 0.0620867399 0.0283497806 0.2831937483 0.0402644463 0.0259002391 0.2089356899 0.0030524802 -0.0000338327 0.0289534738 0.0082694348 0.0124257263 0.1810208111 0.0400960434 0.0157951713 0.1274294943 0.0019447302 0.0047743944 0.1779839461 0.0210431672 -0.0002335462 0.2489745384 0.0410880329 0.0132457370 0.4352296305 0.0117392748 0.0003958296 0.2864032229 0.0293543474 -0.0002224075 0.2950263379 0.0177164252 0.0036009152 0.3146831811 0.0293377314 0.0051118165 0.4603296863 0.0751018986 0.0276490005 0.3881371445 0.0757310931 0.0052004287 0.3111224252 0.0537707478 0.0194363748 0.3018482777 0.0167413147 0.0038512226 0.4256805256 0.0906371392 0.0155855508 0.3432465390 0.0289663233 0.0222423253 0.0154477048 0.0350686954 0.0046457970 0.0178926838 0.0620828015 0.0094586651 0.4470280423 0.0858434582 0.0198550779 0.1902785096 0.0405440272 0.0227400173 0.3225215027 0.0875428235 0.0281585260 0.2326775997 0.0003648003 0.0009251830 0.1930320975 0.0588737557 0.0151868789 0.0937771683 0.0008497123 0.0036830118 0.1003263973 0.0031201833 0.0068979468 0.0629136428 0.0087799470 0.0098640834 0.3008883465 0.0137517433 0.0002043797 0.3837031467 0.0138377862 0.0006967118 0.2947947007 0.0056645979 0.0006640111 0.3839879475 0.0224712639 0.0128438632 0.3049295717 0.0301428815 0.0197450120 0.3677388217 0.0510020583 0.0123080229 0.4171479019 0.0695157330 0.0124880522 0.4362226578 0.0868580300 0.0254667940 0.3725883602 0.0800428490 0.0123218489 0.2509649254 0.0519497827 0.0038639046 0.2480925522 0.0359687167 0.0000501877 0.3641579096 0.0380105871 0.0291692222 0.4361417638 0.0146598081 0.0213854430 0.4292192161 0.0172107468 0.0174921656 0.3537858191 0.0757932515 0.0154022318 0.1748927845 0.0206569468 0.0216423897 0.2440654334 0.0054404468 0.0025074068 0.2526072049 0.0085196405 0.0135652010 0.1814420688 0.0067465328 -0.0000273177 0.1372901115 0.0170991686 0.0006925556 0.0283610287 0.0238605004 0.0126922951 0.3349306703 0.0188525210 0.0041463662 0.4180779719 0.0186642449 0.0004058347 0.4063642193 0.0083428985 0.0054265957 0.4705945171 0.0220931889 0.0005063084 0.3403115579 0.0069967287 0.0000725665 0.3969117082 0.0663021743 0.0074862555 0.3370039628 0.0789400357 0.0011247201 0.4654957317 0.0510735562 0.0178264992 0.4312422412 0.0894328037 0.0047107514 0.3812595120 0.0675263082 0.0079164708 0.3723560581 0.0297387428 0.0285780677 0.3104375546 0.0653299080 0.0269163579 0.3691202098 0.0682236010 0.0274881521 0.3102048362 0.0481053465 0.0276431057 0.1439386621 0.0519949626 0.0137058535 0.4587209154 0.0742644616 0.0211609024 0.2280615683 0.0727764187 -0.0002245460 0.2211457470 0.0837840326 0.0051787580 0.2368270284 0.0922810219 0.0016811522 0.1934079763 0.0135202670 0.0092385495 0.1477194810 0.0523566788 0.0097163337 0.3093126556 0.0333845805 -0.0006119355 0.3446042774 0.0330495236 0.0003661418 0.2480457868 0.0570560244 0.0043810369 0.1927799517 0.0355493512 0.0144926393 0.4522252739 0.0240781068 0.0004341181 0.3289253832 0.0682830426 0.0101235974 0.3576295805 0.0814236260 0.0175111085 0.3900359334 0.0932400799 0.0090175732 0.3360811028 0.0787083164 0.0143197565 0.2526375502 0.0442083530 0.0101482743 0.4331537304 0.0654548050 0.0076925871 0.3702352324 0.0627350526 0.0254021444 0.1562064117 0.0374177130 0.0193760613 0.2189047711 0.0354272807 0.0220169503 0.1120823257 0.0709333106 0.0113247544 0.3082433608 0.0787958767 0.0281287408 0.2041103076 0.0487951606 0.0006936734 0.2060769864 0.0597691589 0.0014906256 0.1767951290 0.0866392382 0.0012546105 0.1713986059 0.0065928324 0.0055811826 0.2068472345 0.0263003120 0.0049416943 0.3066882905 0.0331249835 0.0052006393 0.3350438580 0.0405437831 0.0088903064 0.2681682676 0.0322260104 -0.0000797159 0.1848486572 0.0163325943 0.0061424645 0.3217686751 0.0532676025 0.0043964414 0.3117511760 0.0787251874 0.0192990267 0.4840260283 0.0651896771 0.0155847880 0.3170823
[...]
      <PointData Scalars="smoothLength">
        <DataArray type="Float32" Name="smoothLength" format="ascii">
 0.0065000000 0.0065000000 0.0065000000 0.0065000000 0.0065000000 0.0065000000 0.0065000000 0.0065000000 0.0065000000 0.0065000000 0.0065000000 0.0065000000 0.0065000000 0.0065000000 0.0065000000 0.0065000000 0.0065000000 0.0065000000 0.0065000000 0.0065000000 0.0065000000 0.0065000000 0.0065000000 0.0065000000 0.0065000000 0.0065000000 0.0065000000 0.0065000000 0.0065000000 0.0065000000 0.0065000000 0.0065000000 0.0065000000 0.0065000000 0.0065000000 0.0065000000 0.0065000000 0.0065000000 0.0065000000 0.0065000000 0.0065000000 0.0065000000 0.0065000000 0.0065000000 0.0065000000 0.0065000000 0.0065000000 0.0065000000 0.0065000000 0.0065000000 0.0065000000 0.0065000000 0.0065000000 0.0065000000 0.0065000000 0.0065000000 0.0065000000 0.0065000000 0.0065000000 0.0065000000 0.0065000000 0.0065000000 0.0065000000 0.0065000000 0.0065000000 0.0065000000 0.0065000000 0.0065000000 0.0065000000 0.0065000000 0.0065000000 0.0065000000 0.0065000000 0.0065000000 0.0065000000 0.0065000000 0.0065000000 0.0065000000 0.0065000000 0.0065000000 0.0065000000 0.0065000000 0.0065000000 0.0065000000 0.0065000000 0.0065000000 0.0065000000 0.0065000000 0.0065000000 0.0065000000 0.0065000000 0.0065000000 0.0065000000 0.0065000000 0.0065000000 0.0065000000 0.0065000000 0.0065000000 0.0065000000 0.0065000000 0.0065000000 0.0065000000 0.0065000000 0.0065000000 0.0065000000 0.0065000000 0.0065000000 0.0065000000 0.0065000000 0.0065000000 0.0065000000 0.0065000000 0.0065000000 0.0065000000 0.0065000000 0.0065000000 0.0065000000 0.0065000000 0.0065000000 0.0065000000 0.0065000000 0.0065000000 0.0065000000 0.0065000000 0.0065000000 0.0065000000 0.0065000000 0.0065000000 0.0065000000 0.0065000000 0.0065000000 0.0065000000 0.0065000000 0.0065000000 0.0065000000 0.0065000000 0.0065000000 0.0065000000 0.0065000000 0.0065000000 0.0065000000 0.0065000000 0.0065000000 0.0065000000 0.0065000000 0.0065000000 0.0065000000 0.0065000000 0.0065000000 0.0065000000 0.0065000000 0.0065000000 0.0065000000 0.0065000000 0.0065000000 0.0065000000 0.0065000000 0.0065000000 0.0065000000 0.0065000000 0.0065000000 0.0065000000 0.0065000000 0.0065000000 0.0065000000 0.0065000000 0.0065000000 0.0065000000 0.0065000000 0.0065000000 0.0065000000 0.0065000000 0.0065000000 0.0065000000 0.0065000000 0.0065000000 0.0065000000 0.0065000000 0.0065000000 0.0065000000 0.0065000000 0.0065000000 0.0065000000 0.0065000000 0.0065000000 0.0065000000 0.0065000000 0.0065000000 0.0065000000 0.0065000000 0.0065000000 0.0065000000 0.0065000000 0.0065000000 0.0065000000 0.0065000000 0.0065000000 0.0065000000 0.0065000000 0.0065000000 0.0065000000 0.0065000000 0.0065000000 0.0065000000 0.0065000000 0.0065000000 0.0065000000 0.0065000000 0.0065000000 0.0065000000 0.0065000000 0.0065000000 0.0065000000 0.0065000000 0.0065000000 0.0065000000 0.0065000000 0.0065000000 0.0065000000 0.0065000000 0.0065000000 0.0065000000 0.0065000000 0.0065000000 0.0065000000 0.0065000000 0.0065000000 0.0065000000 0.0065000000 0.0065000000 0.0065000000 0.0065000000 0.0065000000 0.0065000000 0.0065000000 0.0065000000 0.0065000000 0.0065000000 0.0065000000 0.0065000000 0.0065000000 0.0065000000 0.0065000000 0.0065000000 0.0065000000 0.0065000000 0.0065000000 0.0065000000 0.0065000000 0.0065000000 0.0065000000 0.0065000000 0.0065000000 0.0065000000 0.0065000000 0.0065000000 0.0065000000 0.0065000000 0.0065000000 0.0065000000 0.0065000000 0.0065000000 0.0065000000 0.0065000000 0.0065000000 0.0065000000 0.0065000000 0.0065000000 0.0065000000 0.0065000000 0.0065000000 0.0065000000 0.0065000000 0.0065000000 0.0065000000 0.0065000000 0.0065000000 0.0065000000 0.0065000000 0.0065000000 0.0065000000 0.0065000000 0.0065000000 0.0065000000 0.0065000000 0.0065000000 0.0065000000 0.0065000000 0.0065000000 0.0065000000 0.0065000000 0.0065000000 0.0065000000 0.0065000000 0.0065000000 0.0065000000 0.0065000000 0.0065000000 0.0065000000 0.0065000000 0.0065000000 0.0065000000 0.0065000000 0.0065000000 0.0065000000 0.0065000000 0.0065000000 0.0065000000 0.0065000000 0.0065000000 0.0065000000 0.0065000000 0.0065000000 0.0065000000 0.0065000000 0.0065000000 0.0065000000 0.0065000000 0.0065000000 0.0065000000 0.0065000000 0.0065000000 0.0065000000 0.0065000000 0.0065000000 0.0065000000 0.0065000000 0.0065000000 0.0065000000 0.0065000000 0.0065000000 0.0065000000 0.0065000000 0.0065000000 0.0065000000 0.0065000000 0.0065000000 0.0065000000 0.0065000000 0.0065000000 0.0065000000 0.0065000000 0.0065000000 0.0065000000 0.0065000000 0.0065000000 0.0065000000 0.0065000000 0.0065000000 0.0065000000 0.0065000000 0.0065000000 0.0065000000 0.0065000000 0.0065000000 0.0065000000 0.0065000000 0.0065000000 0.0065000000 0.0065000000 0.0065000000 0.0065000000 0.0065000000 0.0065000000 0.0065000000 0.0065000000 0.0065000000 0.0065000000 0.0065000000 0.0065000000 0.0065000000 0.0065000000 0.0065000000 0.0065000000 0.0065000000 0.0065000000 0.0065000000 0.0065000000 0.0065000000 0.0065000000 0.0065000000 0.0065000000 0.0065000000 0.0065000000 0.0065000000 0.0065000000 0.0065000000 0.0065000000 0.0065000000 0.0065000000 0.0065000000 0.0065000000 0.0065000000 0.0065000000 0.0065000000 0.0065000000 0.0065000000 0.0065000000 0.0065000000 0.0065000000 0.0065000000 0.0065000000 0.0065000000 0.0065000000 0.0065000000 0.0065000000 0.0065000000 0.0065000000 0.0065000000 0.0065000000 0.0065000000 0.0065000000 0.0065000000 0.0065000000 0.0065000000 0.0065000000 0.0065000000 0.0065000000 0.0065000000 0.0065000000 0.0065000000 0.0065000000 0.0065000000 0.0065000000 0.0065000000 0.0065000000 0.0065000000 0.0065000000 0.0065000000 0.0065000000 0.0065000000 0.0065000000 0.0065000000 0.0065000000 0.0065000000 0.0065000000 0.0065000000 0.0065000000 0.0065000000 0.0065000000 0.0065000000 0.0065000000 0.0065000000 0.0065000000 0.0065000000 0.0065000000 0.0065000000 0.0065000000 0.0065000000 0.0065000000 0.0065000000 0.0065000000 0.0065000000 0.0065000000 0.0065000000 0.0065000000 0.0065000000 0.0065000000 0.0065000000 0.0065000000 0.0065000000 0.0065000000 0.0065000000 0.0065000000 0.0065000000 0.0065000000 0.0065000000 0.0065000000 0.0065000000 0.0065000000 0.0065000000 0.0065000000 0.0065000000 0.0065000000 0.0065000000 0.0065000000 0.0065000000 0.0065000000 0.0065000000 0.0065000000 0.0065000000 0.0065000000 0.0065000000 0.0065000000 0.0065000000 0.0065000000 0.0065000000 0.0065000000 0.0065000000 0.0065000000 0.0065000000 0.0065000000 0.0065000000 0.0065000000 0.0065000000 0.0065000000 0.0065000000 0.0065000000 0.0065000000 0.0065000000 0.0065000000 0.0065000000 0.0065000000 0.0065000000 0.0065000000 0.0065000000 0.0065000000 0.0065000000 0.0065000000 0.0065000000 0.0065000000 0.0065000000 0.0065000000 0.0065000000 0.0065000000 0.0065000000 0.0065000000 0.0065000000 0.0065000000 0.0065000000 0.0065000000 0.0065000000 0.0065000000 0.0065000000 0.0065000000 0.0065000000 0.0065000000 0.0065000000 0.0065000000 0.0065000000 0.0065000000 0.0065000000 0.0065000000 0.0065000000 0.0065000000 0.0065000000 0.0065000000 0.0065000000 0.0065000000 0.0065000000 0.0065000000 0.0065000000 0.0065000000 0.0065000000 0.0065000000 0.0065000000 0.0065000000 0.0065000000 0.0065000000 0.0065000000 0.0065000000 0.0065000000 0.0065000000 0.0065000000 0.0065000000 0.0065000000 0.0065000000 0.0065000000 0.0065000000 0.0065000000 0.0065000000 0.0065000000 0.0065000000 0.0065000000 0.0065000000 0.0065000000 0.0065000000 0.0065000000 0.0065000000 0.0065000000 0.0065000000 0.0065000000 0.0065000000 0.0065000000 0.0065000000 0.0065000000 0.0065000000 0.0065000000 0.0065000000 0.0065000000 0.0065000000 0.0065000000 0.0065000000 0.0065000000 0.0065000000 0.0065000000 0.0065000000 0.0065000000 0.0065000000 0.0065000000 0.0065000000 0.0065000000 0.0065000000 0.0065000000 0.0065000000 0.0065000000 0.0065000000 0.0065000000 0.0065000000 0.0065000000 0.0065000000 0.0065000000 0.0065000000 0.0065000000 0.0065000000 0.0065000000 0.0065000000 0.0065000000 0.0065000000 0.0065000000 0.0065000000 0.0065000000 0.0065000000 0.0065000000 0.0065000000 0.0065000000 0.0065000000 0.0065000000 0.0065000000 0.0065000000 0.0065000000 0.0065000000 0.0065000000 0.0065000000 0.0065000000 0.0065000000 0.0065000000 0.0065000000 0.0065000000 0.0065000000 0.0065000000 0.0065000000 0.0065000000 0.0065000000 0.0065000000 0.0065000000 0.0065000000 0.0065000000 0.0065000000 0.0065000000 0.0065000000 0.0065000000 0.0065000000 0.0065000000 0.0065000000 0.0065000000 0.0065000000 0.0065000000 0.0065000000 0.0065000000 0.0065000000 0.0065000000 0.0065000000 0.0065000000 0.0065000000 0.0065000000 0.0065000000 0.0065000000 0.0065000000 0.0065000000 0.0065000000 0.0065000000 0.0065000000 0.0065000000 0.0065000000 0.0065000000 0.0065000000 0.0065000000 0.0065000000 0.0065000000 0.0065000000 0.0065000000 0.0065000000 0.0065000000 0.0065000000 0.0065000000 0.0065000000 0.0065000000 0.0065000000 0.0065000000 0.0065000000 0.0065000000 0.0065000000 0.0065000000 0.0065000000 0.0065000000 0.0065000000 0.0065000000 0.0065000000 0.0065000000 0.0065000000 0.0065000000 0.0065000000 0.0065000000 0.0065000000 0.0065000000 0.0065000000 0.0065000000 0.0065000000 0.0065000000 0.0065000000 0.0065000000 0.0065000000 0.0065000000 0.0065000000 0.0065000000 0.0065000000 0.0065000000 0.0065000000 0.0065000000 0.0065000000 0.0065000000 0.0065000000 0.0065000000 0.0065000000 0.0065000000 0.0065000000 0.0065000000 0.0065000000 0.0065000000 0.0065000000 0.0065000000 0.0065000000 0.0065000000 0.0065000000 0.0065000000 0.0065000000 0.0065000000 0.0065000000 0.0065000000 0.0065000000 0.0065000000 0.0065000000 0.0065000000 0.0065000000 0.0065000000 0.0065000000 0.0065000000 0.0065000000 0.0065000000 0.0065000000 0.0065000000 0.0065000000 0.0065000000 0.0065000000 0.0065000000 0.0065000000 0.0065000000 0.0065000000 0.0065000000 0.0065000000 0.0065000000 0.0065000000 0.0065000000 0.0065000000 0.0065000000 0.0065000000 0.0065000000 0.0065000000 0.0065000000 0.0065000000 0.0065000000 0.0065000000 0.0065000000 0.0065000000 0.0065000000 0.0065000000 0.0065000000 0.0065000000 0.0065000000 0.0065000000 0.0065000000 0.0065000000 0.0065000000 0.0065000000 0.0065000000 0.0065000000 0.0065000000 0.0065000000 0.0065000000 0.0065000000 0.0065000000 0.0065000000 0.0065000000 0.0065000000 0.0065000000 0.0065000000 0.0065000000 0.0065000000 0.0065000000 0.0065000000 0.0065000000 0.0065000000 0.0065000000 0.0065000000 0.0065000000 0.0065000000 0.0065000000 0.0065000000 0.0065000000 0.0065000000 0.0065000000 0.0065000000 0.0065000000 0.0065000000 0.0065000000 0.0065000000 0.0065000000 0.0065000000 0.0065000000 0.0065000000 0.0065000000 0.0065000000 0.0065000000 0.0065000000 0.0065000000 0.0065000000 0.0065000000 0.0065000000 0.0065000000 0.0065000000 0.0065000000 0.0065000000 0.0065000000 0.0065000000 0.0065000000 0.0065000000 0.0065000000 0.0065000000 0.0065000000 0.0065000000 0.0065000000 0.0065000000 0.0065000000 0.0065000000 0.0065000000 0.0065000000 0.0065000000 0.0065000000 0.0065000000 0.0065000000 0.0065000000 0.0065000000 0.0065000000 0.0065000000 0.0065000000 0.0065000000 0.0065000000 0.0065000000 0.0065000000 0.0065000000 0.0065000000 0.0065000000 0.0065000000 0.0065000000 0.0065000000 0.0065000000 0.0065000000 0.0065000000 0.0065000000 0.0065000000 0.0065000000 0.0065000000 0.0065000000 0.0065000000 0.0065000000 0.0065000000 0.0065000000 0.0065000000 0.0065000000 0.0065000000 0.0065000000 0.0065000000 0.0065000000 0.0065000000 0.0065000000 0.0065000000 0.0065000000 0.0065000000 0.0065000000 0.0065000000 0.0065000000 0.0065000000 0.0065000000 0.0065000000 0.0065000000 0.0065000000 0.0065000000 0.0065000000 0.0065000000 0.0065000000 0.0065000000 0.0065000000 0.0065000000 0.0065000000 0.0065000000 0.0065000000 0.0065000000 0.0065000000 0.0065000000 0.0065000000 0.0065000000 0.0065000000 0.0065000000 0.0065000000 0.0065000000 0.0065000000 0.0065000000 0.0065000000 0.0065000000 0.0065000000 0.0065000000 0.0065000000 0.0065000000 0.0065000000 0.0065000000 0.0065000000 0.0065000000 0.0065000000 0.0065000000 0.0065000000 0.0065000000 0.0065000000 0.0065000000 0.0065000000 0.0065000000 0.0065000000 0.0065000000 0.0065000000 0.0065000000 0.0065000000 0.0065000000 0.0065000000 0.0065000000 0.0065000000 0.0065000000 0.0065000000 0.0065000000 0.0065000000 0.0065000000 0.0065000000 0.0065000000 0.0065000000 0.0065000000 0.0065000000 0.0065000000 0.0065000000 0.0065000000 0.0065000000 0.0065000000 0.0065000000 0.0065000000 0.0065000000 0.0065000000 0.0065000000 0.0065000000 0.0065000000 0.0065000000 0.0065000000 0.0065000000 0.0065000000 0.0065000000 0.0065000000 0.0065000000 0.0065000000 0.0065000000 0.0065000000 0.0065000000 0.0065000000 0.0065000000 0.0065000000 0.0065000000 0.0065000000 0.0065000000 0.0065000000 0.0065000000 0.0065000000 0.0065000000 0.0065000000 0.0065000000 0.0065000000 0.0065000000 0.0065000000 0.0065000000 0.0065000000 0.0065000000 0.0065000000 0.0065000000 0.0065000000 0.0065000000 0.0065000000 0.0065000000 0.0065000000 0.0065000000 0.0065000000 0.0065000000 0.0065000000 0.0065000000 0.0065000000 0.0065000000 0.0065000000 0.0065000000 0.0065000000 0.0065000000 0.0065000000 0.0065000000 0.0065000000 0.0065000000 0.0065000000 0.0065000000 0.0065000000 0.0065000000 0.0065000000 0.0065000000 0.0065000000 0.0065000000 0.0065000000 0.0065000000 0.0065000000 0.0065000000 0.0065000000 0.0065000000 0.0065000000 0.0065000000 0.0065000000 0.0065000000 0.0065000000 0.0065000000 0.0065000000 0.0065000000 0.0065000000 0.0065000000 0.0065000000 0.0065000000 0.0065000000 0.0065000000 0.0065000000 0.0065000000 0.0065000000 0.0065000000 0.0065000000 0.0065000000 0.0065000000 0.0065000000 0.0065000000 0.0065000000 0.0065000000 0.0065000000 0.0065000000 0.0065000000 0.0065000000 0.0065000000 0.0065000000 0.0065000000 0.0065000000 0.0065000000 0.0065000000 0.0065000000 0.0065000000 0.0065000000 0.0065000000 0.0065000000 0.0065000000 0.0065000000 0.0065000000 0.0065000000 0.0065000000 0.0065000000 0.0065000000 0.0065000000 0.0065000000 0.0065000000 0.0065000000 0.0065000000 0.0065000000 0.0065000000 0.0065000000 0.0065000000 0.0065000000 0.0065000000 0.0065000000 0.0065000000 0.0065000000 0.0065000000 0.0065000000 0.0065000000 0.0065000000 0.0065000000 0.0065000000 0.0065000000 0.0065000000 0.0065000000 0.0065000000 0.0065000000 0.0065000000 0.0065000000 0.0065000000 0.0065000000 0.0065000000 0.0065000000 0.0065000000 0.0065000000 0.0065000000 0.0065000000 0.0065000000 0.0065000000 0.0065000000 0.0065000000 0.0065000000 0.0065000000 0.0065000000 0.0065000000 0.0065000000 0.0065000000 0.0065000000 0.0065000000 0.0065000000 0.0065000000 0.0065000000 0.0065000000 0.0065000000 0.0065000000 0.0065000000 0.0065000000 0.0065000000 0.0065000000 0.0065000000 0.0065000000 0.0065000000 0.0065000000 0.0065000000 0.0065000000 0.0065000000 0.0065000000 0.0065000000 0.0065000000 0.0065000000 0.0065000000 0.0065000000 0.0065000000 0.0065000000 0.0065000000 0.0065000000 0.0065000000 0.0065000000 0.0065000000 0.0065000000 0.0065000000 0.0065000000 0.0065000000 0.0065000000 0.0065000000 0.0065000000 0.0065000000 0.0065000000 0.0065000000 0.0065000000 0.0065000000 0.0065000000 0.0065000000 0.0065000000 0.0065000000 0.0065000000 0.0065000000 0.0065000000 0.0065000000 0.0065000000 0.0065000000 0.0065000000 0.0065000000 0.0065000000 0.0065000000 0.0065000000 0.0065000000 0.0065000000 0.0065000000 0.0065000000 0.0065000000 0.0065000000 0.0065000000 0.0065000000 0.0065000000 0.0065000000 0.0065000000 0.0065000000 0.0065000000 0.0065000000 0.0065000000 0.0065000000 0.0065000000 0.0065000000 0.0065000000 0.0065000000 0.0065000000 0.0065000000 0.0065000000 0.0065000000 0.0065000000 0.0065000000 0.0065000000 0.0065000000 0.0065000000 0.0065000000 0.0065000000 0.0065000000 0.0065000000 0.0065000000 0.0065000000 0.0065000000 0.0065000000 0.0065000000 0.0065000000 0.0065000000 0.0065000000 0.0065000000 0.0065000000 0.0065000000 0.0065000000 0.0065000000 0.0065000000 0.0065000000 0.0065000000 0.0065000000 0.0065000000 0.0065000000 0.0065000000 0.0065000000 0.0065000000 0.0065000000 0.0065000000 0.0065000000 0.0065000000 0.0065000000 0.0065000000 0.0065000000 0.0065000000 0.0065000000 0.0065000000 0.0065000000 0.0065000000 0.0065000000 0.0065000000 0.0065000000 0.0065000000 0.0065000000 0.0065000000 0.0065000000 0.0065000000 0.0065000000 0.0065000000 0.0065000000 0.0065000000 0.0065000000 0.0065000000 0.0065000000 0.0065000000 0.0065000000 0.0065000000 0.0065000000 0.0065000000 0.0065000000 0.0065000000 0.0065000000 0.0065000000 0.0065000000 0.0065000000 0.0065000000 0.0065000000 0.0065000000 0.0065000000 0.0065000000 0.0065000000 0.0065000000 0.0065000000 0.0065000000 0.0065000000 0.0065000000 0.0065000000 0.0065000000 0.0065000000 0.0065000000 0.0065000000 0.0065000000 0.0065000000 0.0065000000 0.0065000000 0.0065000000 0.0065000000 0.0065000000 0.0065000000 0.0065000000 0.0065000000 0.0065000000 0.0065000000 0.0065000000 0.0065000000 0.0065000000 0.0065000000 0.0065000000 0.0065000000 0.0065000000 0.0065000000 0.0065000000 0.0065000000 0.0065000000 0.0065000000 0.0065000000 0.0065000000 0.0065000000 0.0065000000 0.0065000000 0.0065000000 0.0065000000 0.0065000000 0.0065000000 0.0065000000 0.0065000000 0.0065000000 0.0065000000 0.0065000000 0.0065000000 0.0065000000 0.0065000000 0.0065000000 0.0065000000 0.0065000000 0.0065000000 0.0065000000 0.0065000000 0.0065000000 0.0065000000 0.0065000000 0.0065000000 0.0065000000 0.0065000000 0.0065000000 0.0065000000 0.0065000000 0.0065000000 0.0065000000 0.0065000000 0.0065000000 0.0065000000 0.0065000000 0.0065000000 0.0065000000 0.0065000000 0.0065000000 0.0065000000 0.0065000000 0.0065000000 0.0065000000 0.0065000000 0.0065000000 0.0065000000 0.0065000000 0.0065000000 0.0065000000 0.0065000000 0.0065000000 0.0065000000 0.0065000000 0.0065000000 0.0065000000 0.0065000000 0.0065000000 0.0065000000 0.0065000000 0.0065000000 0.0065000000 0.0065000000 0.0065000000 0.0065000000 0.0065000000 0.0065000000 0.0065000000 0.0065000000 0.0065000000 0.0065000000 0.0065000000 0.0065000000 0.0065000000 0.0065000000 0.0065000000 0.0065000000 0.0065000000 0.0065000000 0.0065000000 0.0065000000 0.0065000000 0.0065000000 0.0065000000 0.0065000000 0.0065000000 0.0065000000 0.0065000000 0.0065000000 0.0065000000 0.0065000000 0.0065000000 0.0065000000 0.0065000000 0.0065000000 0.0065000000 0.0065000000 0.0065000000 0.0065000000 0.0065000000 0.0065000000 0.0065000000 0.0065000000 0.0065000000 0.0065000000 0.0065000000 0.0065000000 0.0065000000 0.0065000000 0.0065000000 0.0065000000 0.0065000000 0.0065000000 0.0065000000 0.0065000000 0.0065000000 0.0065000000 0.0065000000 0.0065000000 0.0065000000 0.0065000000 0.0065000000 0.0065000000 0.0065000000 0.0065000000 0.0065000000 0.0065000000 0.0065000000 0.0065000000 0.0065000000 0.0065000000 0.0065000000 0.0065000000 0.0065000000 0.0065000000 0.0065000000 0.0065000000 0.0065000000 0.0065000000 0.0065000000 0.0065000000 0.0065000000 0.0065000000 0.0065000000 0.0065000000 0.0065000000 0.0065000000 0.0065000000 0.0065000000 0.0065000000 0.0065000000 0.0065000000 0.0065000000 0.0065000000 0.0065000000 0.0065000000 0.0065000000 0.0065000000 0.0065000000 0.0065000000 0.0065000000 0.0065000000 0.0065000000 0.0065000000 0.0065000000 0.0065000000 0.0065000000 0.0065000000 0.0065000000 0.0065000000 0.0065000000 0.0065000000 0.0065000000 0.0065000000 0.0065000000 0.0065000000 0.0065000000 0.0065000000 0.0065000000 0.0065000000 0.0065000000 0.0065000000 0.0065000000 0.0065000000 0.0065000000 0.0065000000 0.0065000000 0.0065000000 0.0065000000 0.0065000000 0.0065000000 0.0065000000 0.0065000000 0.0065000000 0.0065000000 0.0065000000 0.0065000000 0.0065000000 0.0065000000 0.0065000000 0.0065000000 0.0065000000 0.0065000000 0.0065000000 0.0065000000 0.0065000000 0.0065000000 0.0065000000 0.0065000000 0.0065000000 0.0065000000 0.0065000000 0.0065000000 0.0065000000 0.0065000000 0.0065000000 0.0065000000 0.0065000000 0.0065000000 0.0065000000 0.0065000000 0.006500000