<?xml version="1.0"?>
<VTKFile type="UnstructuredGrid" version="0.1" byte_order="LittleEndian">
  <UnstructuredGrid>
    <FieldData>
      <DataArray type="Float32" Name="TIME"  NumberOfTuples="1" format="ascii"> 0.4996558580 </DataArray>
      <DataArray type="Int32"   Name="STEP"  NumberOfTuples="1" format="ascii"> 6700 </DataArray>
    </FieldData>
    <Piece NumberOfPoints="18081" NumberOfCells="18081">
      <Points>
        <DataArray type="Float32" NumberOfComponents="3" format="ascii">
 0.0591797477 0.0213658259 0.0038418421 0.0773820445 0.0237272162 0.0006318260 0.0839766063 0.0231224796 -0.0007709519 0.1013531961 0.0233944273 0.0002986361 0.1187299800 0.0230058857 -0.0004184427 0.1282877227 0.0232369021 0.0003073657 0.1665996773 0.0190630554 -0.0004996325 0.1905362762 0.0235324079 0.0007614275 0.2350396168 0.0172897532 -0.0005364486 0.2648064742 0.0192022103 0.0041144072 0.2785881736 0.0195796273 -0.0003272391 0.3188895287 0.0190231899 -0.0006954001 0.3439655658 0.0155742264 -0.0008771593 0.3937274679 0.0150181996 -0.0002077059 0.4473500165 0.0183868550 0.0001631230 0.4860568806 0.0121495498 0.0031959877 0.4982588793 0.0097884127 0.0119996399 0.4971769879 0.0119190692 0.0653675176 0.4891253765 0.0020895835 0.0892859764 0.4985175037 0.0036295553 0.1087587238 0.4977462426 0.0046444978 0.1377619734 0.0610596967 0.0226119430 -0.0007123684 0.0670846469 0.0228677371 -0.0004066602 0.0814378956 0.0251109039 0.0035230112 0.0984493115 0.0240913220 0.0045320382 0.1423564657 0.0273530939 0.0018156924 0.1751167801 0.0198342054 -0.0002792638 0.2027749874 0.0266539818 -0.0006228092 0.2398976489 0.0217086137 -0.0010141058 0.2736678843 0.0219685595 0.0000921570 0.3114488842 0.0187943232 -0.0004412379 0.3362452134 0.0219176127 -0.0006328090 0.3695644326 0.0179352767 -0.0001229783 0.4215909702 0.0187570301 -0.0008381761 0.4790613103 0.0181712009 0.0009686712 0.4974409376 0.0170314016 0.0085447014 0.4977480784 0.0145631771 0.0242660992 0.4987440576 0.0134326408 0.0683115142 0.4935795894 0.0113646408 0.0892297413 0.4915520921 0.0072800917 0.0807740495 0.4871350121 0.0111123640 0.1169643901 0.5015356713 0.0291819396 0.1556041895 0.0673769729 0.0276257549 -0.0005987821 0.0738330514 0.0269301584 -0.0001493665 0.0814228895 0.0286939753 -0.0005971087 0.0859896861 0.0287868482 0.0004772759 0.1062828785 0.0255008427 -0.0004496827 0.1516528775 0.0241289938 -0.0006286826 0.1885006624 0.0278817943 -0.0005463354 0.2272358398 0.0210635001 -0.0002762250 0.2557884377 0.0239985871 -0.0003914686 0.2899801016 0.0251895591 0.0003473347 0.3238937802 0.0221580259 0.0001100393 0.3548063615 0.0245554933 -0.0008005956 0.3867033757 0.0219043820 -0.0006541548 0.4378449008 0.0232909054 -0.0001224541 0.4649482398 0.0169548085 -0.0004044436 0.4949791790 0.0160092537 0.0382186007 0.5015065059 0.0143309573 0.0556690739 0.4984177193 0.0147776032 0.0899430039 0.5009624806 0.0106078589 0.1194727911 0.4986248404 0.0014216614 0.1274665327 0.4939238429 0.0039319608 0.1487338506 0.0590429443 0.0292583315 -0.0005158349 0.0693099532 0.0320392345 -0.0002953387 0.0858027568 0.0329446271 -0.0001752404 0.0987189815 0.0272236816 -0.0002634740 0.1328002503 0.0271069233 -0.0004591468 0.1666519280 0.0249853560 -0.0006054153 0.1956344241 0.0241803350 -0.0005879324 0.2320689650 0.0232180933 -0.0006681818 0.2645644190 0.0192356524 -0.0009814356 0.3056898410 0.0215702080 -0.0000267914 0.3335195262 0.0266108887 0.0000743302 0.3749001351 0.0233124289 -0.0006668321 0.4158160873 0.0207907246 -0.0001719325 0.4519150925 0.0163026237 0.0000368219 0.4937148513 0.0220486567 0.0097308423 0.4996661072 0.0171039513 0.0287757908 0.4966110785 0.0197938041 0.0655599817 0.4983695991 0.0243845135 0.0890364007 0.4955202216 0.0169626870 0.0952436303 0.5015366218 0.0044215744 0.1332376624 0.4994353125 0.0124577580 0.1466060941 0.0520047594 0.0301816616 -0.0003611380 0.0762873970 0.0307703415 -0.0002382802 0.0979715759 0.0323231643 -0.0001893697 0.1044702276 0.0307066347 -0.0003078026 0.1268641375 0.0305882052 -0.0006020449 0.1490394262 0.0292221030 -0.0007863093 0.1814793883 0.0292049338 -0.0002345984 0.2253406208 0.0257235576 -0.0007433913 0.2584328906 0.0316002572 -0.0010284961 0.2953863034 0.0240717176 0.0000547582 0.3273084202 0.0266779842 -0.0012914299 0.3708887942 0.0280941531 -0.0006139358 0.4049326605 0.0248330763 -0.0004403032 0.4432929798 0.0327503767 0.0010077660 0.4887984806 0.0226214725 0.0019133080 0.4973580910 0.0270151269 0.0273435988 0.4970891555 0.0194522178 0.0737129986 0.4989104001 0.0282449035 0.0902947209 0.5010592864 0.0151578173 0.0783199808 0.4998528106 0.0193670402 0.1431405577 0.5014186385 0.0106873931 0.1476843285 0.0565044796 0.0335640731 -0.0000615461 0.0748970542 0.0352599720 -0.0004264877 0.0922148539 0.0341019081 -0.0005216081 0.1017410489 0.0352457148 -0.0001508700 0.1092996923 0.0318591036 -0.0007390589 0.1443110838 0.0364397848 -0.0001150415 0.1837628937 0.0324577413 0.0009492734 0.2261471813 0.0317171795 -0.0008202609 0.2474411311 0.0338668591 -0.0002779725 0.2779170225 0.0285465687 -0.0005552323 0.3212427833 0.0279519980 -0.0003908133 0.3555586408 0.0319655870 -0.0007983907 0.3922472969 0.0331303415 -0.0006148937 0.4423083650 0.0371919708 -0.0005751487 0.4883516097 0.0261669251 0.0009776180 0.4968430319 0.0290414312 0.0429328861 0.5014489690 0.0262609626 0.0350460588 0.4955276813 0.0257871317 0.0855463591 0.4956123336 0.0200125546 0.1034922505 0.5000709490 0.0292293995 0.1176336942 0.4988738066 0.0283886245 0.1453364841 0.0554199354 0.0390678700 -0.0000925214 0.0735741080 0.0410900000 -0.0007508925 0.0973823845 0.0382643205 -0.0006696128 0.1166937526 0.0371230515 -0.0008008146 0.1210294048 0.0401850284 -0.0001309171 0.1550471473 0.0325952619 -0.0002950141 0.2044671278 0.0343578561 -0.0010372859 0.2333760340 0.0333582842 -0.0010170913 0.2649430854 0.0325299304 -0.0005574466 0.2970944372 0.0354127629 -0.0005563611 0.3207614738 0.0384710080 -0.0003399836 0.3716331771 0.0382606313 -0.0008215994 0.4056122355 0.0366757682 -0.0001290190 0.4579345459 0.0316417531 -0.0002971764 0.4914929814 0.0361331728 0.0016811339 0.5003129492 0.0320867974 0.0174985521 0.4973129396 0.0345629256 0.0625802571 0.4992166692 0.0280550146 0.0971925291 0.4923773638 0.0275738976 0.1095520590 0.5010710502 0.0336240751 0.1351495769 0.4917920666 0.0157480912 0.1450099241 0.0583239970 0.0428044231 -0.0009575781 0.0790025072 0.0438295766 -0.0009658470 0.0888618707 0.0393399373 -0.0006703778 0.1037206138 0.0394800345 -0.0004267978 0.1127963132 0.0409965834 -0.0004295357 0.1455908672 0.0478620536 -0.0005734353 0.1862654292 0.0355974802 -0.0004052812 0.2216293673 0.0448027062 0.0001553204 0.2465908132 0.0386940370 -0.0007719591 0.2712903723 0.0411496026 -0.0009669271 0.3132584174 0.0394007120 -0.0010722812 0.3593673121 0.0369504153 -0.0009873960 0.3901187769 0.0442258919 -0.0012292662 0.4487648079 0.0363963134 -0.0002726068 0.4882801212 0.0380105644 0.0002338879 0.4993682909 0.0379489311 0.0267381524 0.4954759934 0.0383257884 0.0684794489 0.4913389246 0.0375215979 0.0944693217 0.4998793216 0.0338475105 0.1043645651 0.4958429082 0.0404805935 0.1194627217 0.4971538894 0.0399003702 0.1448875125 0.0599434541 0.0479852372 -0.0001635572 0.0770199568 0.0483660232 0.0002975830 0.1000262841 0.0454069370 -0.0005263664 0.1058957797 0.0434810535 -0.0004030128 0.1176073811 0.0437215511 0.0002295384 0.1564554898 0.0427870205 -0.0004328908 0.2003157847 0.0418881777 -0.0010459794 0.2304298503 0.0421770379 -0.0004729246 0.2569197887 0.0431902181 -0.0003484979 0.2892958213 0.0469567977 -0.0005911772 0.3244109010 0.0425281895 -0.0005211695 0.3795876345 0.0480121140 0.0004634806 0.4030157187 0.0470815282 -0.0010621579 0.4476485368 0.0416644788 -0.0005199515 0.4875535786 0.0437581177 0.0050109409 0.5003146860 0.0423947710 0.0028402264 0.5024671864 0.0445932674 0.0697525632 0.5019334658 0.0364803378 0.0973932028 0.5006598927 0.0454815434 0.1071555048 0.5009124838 0.0498650086 0.1311012908 0.4890434628 0.0277109395 0.1419822858 0.0597168843 0.0525037010 -0.0005694126 0.0822253080 0.0533399046 -0.0009838452 0.0915695828 0.0473198434 -0.0008058951 0.1045427119 0.0483272757 -0.0007590533 0.1112074708 0.0460680322 -0.0000866069 0.1576646738 0.0480573443 -0.0008542216 0.1927737427 0.0468880379 -0.0006436043 0.2156324587 0.0476687476 -0.0007725262 0.2529645658 0.0481400441 -0.0005048365 0.2684159874 0.0459352301 -0.0004037221 0.3197642878 0.0479291982 -0.0010873297 0.3635915417 0.0480236880 -0.0003327403 0.3916684463 0.0495904280 -0.0000058797 0.4476903513 0.0503013130 0.0046597087 0.4885988019 0.0499404443 0.0019768101 0.4998310245 0.0502572629 0.0275239096 0.4973342730 0.0485181149 0.0710404189 0.5002162153 0.0445337581 0.0853029719 0.5021078037 0.0480347648 0.1081072046 0.4918889621 0.0524215430 0.1259294518 0.4931717547 0.0490875947 0.1433954440 0.0637945163 0.0587367814 -0.0008954089 0.0765325304 0.0589844826 -0.0008679619 0.0973155536 0.0511386209 -0.0009946097 0.1053489543 0.0530654108 -0.0001681040 0.1210216256 0.0532774808 -0.0004724473 0.1487313923 0.0518976249 -0.0004653183 0.2041519639 0.0538193261 -0.0010404321 0.2271682110 0.0539951147 -0.0007666178 0.2581270837 0.0531030392 -0.0002772234 0.2904764988 0.0534948271 -0.0008831667 0.3246372234 0.0518762961 -0.0008470081 0.3778042117 0.0565642533 0.0002555407 0.3954411987 0.0548465185 -0.0003553161 0.4499898457 0.0520624758 0.0008667077 0.4864493320 0.0548448505 0.0053641240 0.4998456679 0.0533476106 0.0136720103 0.5012869531 0.0555267220 0.0635188468 0.4936839789 0.0511514052 0.0881181268 0.5016861025 0.0543158619 0.0738186411 0.4926681116 0.0577800754 0.1130508237 0.4962105063 0.0396939095 0.1446618708 0.0600180713 0.0631538993 -0.0007144485 0.0828282316 0.0645726465 -0.0004823902 0.0958143899 0.0564703727 -0.0001644742 0.1021458071 0.0586870767 -0.0007790015 0.1174613804 0.0580844701 -0.0003761356 0.1526349461 0.0562590879 -0.0006538686 0.1957562744 0.0581111565 -0.0006752016 0.2226861874 0.0579613995 -0.0008736632 0.2477877721 0.0563980563 -0.0007777986 0.
[...]
      <PointData Scalars="smoothLength">
        <DataArray type="Float32" Name="smoothLength" format="ascii">
 0.0065000000 0.0065000000 0.0065000000 0.0065000000 0.0065000000 0.0065000000 0.0065000000 0.0065000000 0.0065000000 0.0065000000 0.0065000000 0.0065000000 0.0065000000 0.0065000000 0.0065000000 0.0065000000 0.0065000000 0.0065000000 0.0065000000 0.0065000000 0.0065000000 0.0065000000 0.0065000000 0.0065000000 0.0065000000 0.0065000000 0.0065000000 0.0065000000 0.0065000000 0.0065000000 0.0065000000 0.0065000000 0.0065000000 0.0065000000 0.0065000000 0.0065000000 0.0065000000 0.0065000000 0.0065000000 0.0065000000 0.0065000000 0.0065000000 0.0065000000 0.0065000000 0.0065000000 0.0065000000 0.0065000000 0.0065000000 0.0065000000 0.0065000000 0.0065000000 0.0065000000 0.0065000000 0.0065000000 0.0065000000 0.0065000000 0.0065000000 0.0065000000 0.0065000000 0.0065000000 0.0065000000 0.0065000000 0.0065000000 0.0065000000 0.0065000000 0.0065000000 0.0065000000 0.0065000000 0.0065000000 0.0065000000 0.0065000000 0.0065000000 0.0065000000 0.0065000000 0.0065000000 0.0065000000 0.0065000000 0.0065000000 0.0065000000 0.0065000000 0.0065000000 0.0065000000 0.0065000000 0.0065000000 0.0065000000 0.0065000000 0.0065000000 0.0065000000 0.0065000000 0.0065000000 0.0065000000 0.0065000000 0.0065000000 0.0065000000 0.0065000000 0.0065000000 0.0065000000 0.0065000000 0.0065000000 0.0065000000 0.0065000000 0.0065000000 0.0065000000 0.0065000000 0.0065000000 0.0065000000 0.0065000000 0.0065000000 0.0065000000 0.0065000000 0.0065000000 0.0065000000 0.0065000000 0.0065000000 0.0065000000 0.0065000000 0.0065000000 0.0065000000 0.0065000000 0.0065000000 0.0065000000 0.0065000000 0.0065000000 0.0065000000 0.0065000000 0.0065000000 0.0065000000 0.0065000000 0.0065000000 0.0065000000 0.0065000000 0.0065000000 0.0065000000 0.0065000000 0.0065000000 0.0065000000 0.0065000000 0.0065000000 0.0065000000 0.0065000000 0.0065000000 0.0065000000 0.0065000000 0.0065000000 0.0065000000 0.0065000000 0.0065000000 0.0065000000 0.0065000000 0.0065000000 0.0065000000 0.0065000000 0.0065000000 0.0065000000 0.0065000000 0.0065000000 0.0065000000 0.0065000000 0.0065000000 0.0065000000 0.0065000000 0.0065000000 0.0065000000 0.0065000000 0.0065000000 0.0065000000 0.0065000000 0.0065000000 0.0065000000 0.0065000000 0.0065000000 0.0065000000 0.0065000000 0.0065000000 0.0065000000 0.0065000000 0.0065000000 0.0065000000 0.0065000000 0.0065000000 0.0065000000 0.0065000000 0.0065000000 0.0065000000 0.0065000000 0.0065000000 0.0065000000 0.0065000000 0.0065000000 0.0065000000 0.0065000000 0.0065000000 0.0065000000 0.0065000000 0.0065000000 0.0065000000 0.0065000000 0.0065000000 0.0065000000 0.0065000000 0.0065000000 0.0065000000 0.0065000000 0.0065000000 0.0065000000 0.0065000000 0.0065000000 0.0065000000 0.0065000000 0.0065000000 0.0065000000 0.0065000000 0.0065000000 0.0065000000 0.0065000000 0.0065000000 0.0065000000 0.0065000000 0.0065000000 0.0065000000 0.0065000000 0.0065000000 0.0065000000 0.0065000000 0.0065000000 0.0065000000 0.0065000000 0.0065000000 0.0065000000 0.0065000000 0.0065000000 0.0065000000 0.0065000000 0.0065000000 0.0065000000 0.0065000000 0.0065000000 0.0065000000 0.0065000000 0.0065000000 0.0065000000 0.0065000000 0.0065000000 0.0065000000 0.0065000000 0.0065000000 0.0065000000 0.0065000000 0.0065000000 0.0065000000 0.0065000000 0.0065000000 0.0065000000 0.0065000000 0.0065000000 0.0065000000 0.0065000000 0.0065000000 0.0065000000 0.0065000000 0.0065000000 0.0065000000 0.0065000000 0.0065000000 0.0065000000 0.0065000000 0.0065000000 0.0065000000 0.0065000000 0.0065000000 0.0065000000 0.0065000000 0.0065000000 0.0065000000 0.0065000000 0.0065000000 0.0065000000 0.0065000000 0.0065000000 0.0065000000 0.0065000000 0.0065000000 0.0065000000 0.0065000000 0.0065000000 0.0065000000 0.0065000000 0.0065000000 0.0065000000 0.0065000000 0.0065000000 0.0065000000 0.0065000000 0.0065000000 0.0065000000 0.0065000000 0.0065000000 0.0065000000 0.0065000000 0.0065000000 0.0065000000 0.0065000000 0.0065000000 0.0065000000 0.0065000000 0.0065000000 0.0065000000 0.0065000000 0.0065000000 0.0065000000 0.0065000000 0.0065000000 0.0065000000 0.0065000000 0.0065000000 0.0065000000 0.0065000000 0.0065000000 0.0065000000 0.0065000000 0.0065000000 0.0065000000 0.0065000000 0.0065000000 0.0065000000 0.0065000000 0.0065000000 0.0065000000 0.0065000000 0.0065000000 0.0065000000 0.0065000000 0.0065000000 0.0065000000 0.0065000000 0.0065000000 0.0065000000 0.0065000000 0.0065000000 0.0065000000 0.0065000000 0.0065000000 0.0065000000 0.0065000000 0.0065000000 0.0065000000 0.0065000000 0.0065000000 0.0065000000 0.0065000000 0.0065000000 0.0065000000 0.0065000000 0.0065000000 0.0065000000 0.0065000000 0.0065000000 0.0065000000 0.0065000000 0.0065000000 0.0065000000 0.0065000000 0.0065000000 0.0065000000 0.0065000000 0.0065000000 0.0065000000 0.0065000000 0.0065000000 0.0065000000 0.0065000000 0.0065000000 0.0065000000 0.0065000000 0.0065000000 0.0065000000 0.0065000000 0.0065000000 0.0065000000 0.0065000000 0.0065000000 0.0065000000 0.0065000000 0.0065000000 0.0065000000 0.0065000000 0.0065000000 0.0065000000 0.0065000000 0.0065000000 0.0065000000 0.0065000000 0.0065000000 0.0065000000 0.0065000000 0.0065000000 0.0065000000 0.0065000000 0.0065000000 0.0065000000 0.0065000000 0.0065000000 0.0065000000 0.0065000000 0.0065000000 0.0065000000 0.0065000000 0.0065000000 0.0065000000 0.0065000000 0.0065000000 0.0065000000 0.0065000000 0.0065000000 0.0065000000 0.0065000000 0.0065000000 0.0065000000 0.0065000000 0.0065000000 0.0065000000 0.0065000000 0.0065000000 0.0065000000 0.0065000000 0.0065000000 0.0065000000 0.0065000000 0.0065000000 0.0065000000 0.0065000000 0.0065000000 0.0065000000 0.0065000000 0.0065000000 0.0065000000 0.0065000000 0.0065000000 0.0065000000 0.0065000000 0.0065000000 0.0065000000 0.0065000000 0.0065000000 0.0065000000 0.0065000000 0.0065000000 0.0065000000 0.0065000000 0.0065000000 0.0065000000 0.0065000000 0.0065000000 0.0065000000 0.0065000000 0.0065000000 0.0065000000 0.0065000000 0.0065000000 0.0065000000 0.0065000000 0.0065000000 0.0065000000 0.0065000000 0.0065000000 0.0065000000 0.0065000000 0.0065000000 0.0065000000 0.0065000000 0.0065000000 0.0065000000 0.0065000000 0.0065000000 0.0065000000 0.0065000000 0.0065000000 0.0065000000 0.0065000000 0.0065000000 0.0065000000 0.0065000000 0.0065000000 0.0065000000 0.0065000000 0.0065000000 0.0065000000 0.0065000000 0.0065000000 0.0065000000 0.0065000000 0.0065000000 0.0065000000 0.0065000000 0.0065000000 0.0065000000 0.0065000000 0.0065000000 0.0065000000 0.0065000000 0.0065000000 0.0065000000 0.0065000000 0.0065000000 0.0065000000 0.0065000000 0.0065000000 0.0065000000 0.0065000000 0.0065000000 0.0065000000 0.0065000000 0.0065000000 0.0065000000 0.0065000000 0.0065000000 0.0065000000 0.0065000000 0.0065000000 0.0065000000 0.0065000000 0.0065000000 0.0065000000 0.0065000000 0.0065000000 0.0065000000 0.0065000000 0.0065000000 0.0065000000 0.0065000000 0.0065000000 0.0065000000 0.0065000000 0.0065000000 0.0065000000 0.0065000000 0.0065000000 0.0065000000 0.0065000000 0.0065000000 0.0065000000 0.0065000000 0.0065000000 0.0065000000 0.0065000000 0.0065000000 0.0065000000 0.0065000000 0.0065000000 0.0065000000 0.0065000000 0.0065000000 0.0065000000 0.0065000000 0.0065000000 0.0065000000 0.0065000000 0.0065000000 0.0065000000 0.0065000000 0.0065000000 0.0065000000 0.0065000000 0.0065000000 0.0065000000 0.0065000000 0.0065000000 0.0065000000 0.0065000000 0.0065000000 0.0065000000 0.0065000000 0.0065000000 0.0065000000 0.0065000000 0.0065000000 0.0065000000 0.0065000000 0.0065000000 0.0065000000 0.0065000000 0.0065000000 0.0065000000 0.0065000000 0.0065000000 0.0065000000 0.0065000000 0.0065000000 0.0065000000 0.0065000000 0.0065000000 0.0065000000 0.0065000000 0.0065000000 0.0065000000 0.0065000000 0.0065000000 0.0065000000 0.0065000000 0.0065000000 0.0065000000 0.0065000000 0.0065000000 0.0065000000 0.0065000000 0.0065000000 0.0065000000 0.0065000000 0.0065000000 0.0065000000 0.0065000000 0.0065000000 0.0065000000 0.0065000000 0.0065000000 0.0065000000 0.0065000000 0.0065000000 0.0065000000 0.0065000000 0.0065000000 0.0065000000 0.0065000000 0.0065000000 0.0065000000 0.0065000000 0.0065000000 0.0065000000 0.0065000000 0.0065000000 0.0065000000 0.0065000000 0.0065000000 0.0065000000 0.0065000000 0.0065000000 0.0065000000 0.0065000000 0.0065000000 0.0065000000 0.0065000000 0.0065000000 0.0065000000 0.0065000000 0.0065000000 0.0065000000 0.0065000000 0.0065000000 0.0065000000 0.0065000000 0.0065000000 0.0065000000 0.0065000000 0.0065000000 0.0065000000 0.0065000000 0.0065000000 0.0065000000 0.0065000000 0.0065000000 0.0065000000 0.0065000000 0.0065000000 0.0065000000 0.0065000000 0.0065000000 0.0065000000 0.0065000000 0.0065000000 0.0065000000 0.0065000000 0.0065000000 0.0065000000 0.0065000000 0.0065000000 0.0065000000 0.0065000000 0.0065000000 0.0065000000 0.0065000000 0.0065000000 0.0065000000 0.0065000000 0.0065000000 0.0065000000 0.0065000000 0.0065000000 0.0065000000 0.0065000000 0.0065000000 0.0065000000 0.0065000000 0.0065000000 0.0065000000 0.0065000000 0.0065000000 0.0065000000 0.0065000000 0.0065000000 0.0065000000 0.0065000000 0.0065000000 0.0065000000 0.0065000000 0.0065000000 0.0065000000 0.0065000000 0.0065000000 0.0065000000 0.0065000000 0.0065000000 0.0065000000 0.0065000000 0.0065000000 0.0065000000 0.0065000000 0.0065000000 0.0065000000 0.0065000000 0.0065000000 0.0065000000 0.0065000000 0.0065000000 0.0065000000 0.0065000000 0.0065000000 0.0065000000 0.0065000000 0.0065000000 0.0065000000 0.0065000000 0.0065000000 0.0065000000 0.0065000000 0.0065000000 0.0065000000 0.0065000000 0.0065000000 0.0065000000 0.0065000000 0.0065000000 0.0065000000 0.0065000000 0.0065000000 0.0065000000 0.0065000000 0.0065000000 0.0065000000 0.0065000000 0.0065000000 0.0065000000 0.0065000000 0.0065000000 0.0065000000 0.0065000000 0.0065000000 0.0065000000 0.0065000000 0.0065000000 0.0065000000 0.0065000000 0.0065000000 0.0065000000 0.0065000000 0.0065000000 0.0065000000 0.0065000000 0.0065000000 0.0065000000 0.0065000000 0.0065000000 0.0065000000 0.0065000000 0.0065000000 0.0065000000 0.0065000000 0.0065000000 0.0065000000 0.0065000000 0.0065000000 0.0065000000 0.0065000000 0.0065000000 0.0065000000 0.0065000000 0.0065000000 0.0065000000 0.0065000000 0.0065000000 0.0065000000 0.0065000000 0.0065000000 0.0065000000 0.0065000000 0.0065000000 0.0065000000 0.0065000000 0.0065000000 0.0065000000 0.0065000000 0.0065000000 0.0065000000 0.0065000000 0.0065000000 0.0065000000 0.0065000000 0.0065000000 0.0065000000 0.0065000000 0.0065000000 0.0065000000 0.0065000000 0.0065000000 0.0065000000 0.0065000000 0.0065000000 0.0065000000 0.0065000000 0.0065000000 0.0065000000 0.0065000000 0.0065000000 0.0065000000 0.0065000000 0.0065000000 0.0065000000 0.0065000000 0.0065000000 0.0065000000 0.0065000000 0.0065000000 0.0065000000 0.0065000000 0.0065000000 0.0065000000 0.0065000000 0.0065000000 0.0065000000 0.0065000000 0.0065000000 0.0065000000 0.0065000000 0.0065000000 0.0065000000 0.0065000000 0.0065000000 0.0065000000 0.0065000000 0.0065000000 0.0065000000 0.0065000000 0.0065000000 0.0065000000 0.0065000000 0.0065000000 0.0065000000 0.0065000000 0.0065000000 0.0065000000 0.0065000000 0.0065000000 0.0065000000 0.0065000000 0.0065000000 0.0065000000 0.0065000000 0.0065000000 0.0065000000 0.0065000000 0.0065000000 0.0065000000 0.0065000000 0.0065000000 0.0065000000 0.0065000000 0.0065000000 0.0065000000 0.0065000000 0.0065000000 0.0065000000 0.0065000000 0.0065000000 0.0065000000 0.0065000000 0.0065000000 0.0065000000 0.0065000000 0.0065000000 0.0065000000 0.0065000000 0.0065000000 0.0065000000 0.0065000000 0.0065000000 0.0065000000 0.0065000000 0.0065000000 0.0065000000 0.0065000000 0.0065000000 0.0065000000 0.0065000000 0.0065000000 0.0065000000 0.0065000000 0.0065000000 0.0065000000 0.0065000000 0.0065000000 0.0065000000 0.0065000000 0.0065000000 0.0065000000 0.0065000000 0.0065000000 0.0065000000 0.0065000000 0.0065000000 0.0065000000 0.0065000000 0.0065000000 0.0065000000 0.0065000000 0.0065000000 0.0065000000 0.0065000000 0.0065000000 0.0065000000 0.0065000000 0.0065000000 0.0065000000 0.0065000000 0.0065000000 0.0065000000 0.0065000000 0.0065000000 0.0065000000 0.0065000000 0.0065000000 0.0065000000 0.0065000000 0.0065000000 0.0065000000 0.0065000000 0.0065000000 0.0065000000 0.0065000000 0.0065000000 0.0065000000 0.0065000000 0.0065000000 0.0065000000 0.0065000000 0.0065000000 0.0065000000 0.0065000000 0.0065000000 0.0065000000 0.0065000000 0.0065000000 0.0065000000 0.0065000000 0.0065000000 0.0065000000 0.0065000000 0.0065000000 0.0065000000 0.0065000000 0.0065000000 0.0065000000 0.0065000000 0.0065000000 0.0065000000 0.0065000000 0.0065000000 0.0065000000 0.0065000000 0.0065000000 0.0065000000 0.0065000000 0.0065000000 0.0065000000 0.0065000000 0.0065000000 0.0065000000 0.0065000000 0.0065000000 0.0065000000 0.0065000000 0.0065000000 0.0065000000 0.0065000000 0.0065000000 0.0065000000 0.0065000000 0.0065000000 0.0065000000 0.0065000000 0.0065000000 0.0065000000 0.0065000000 0.0065000000 0.0065000000 0.0065000000 0.0065000000 0.0065000000 0.0065000000 0.0065000000 0.0065000000 0.0065000000 0.0065000000 0.0065000000 0.0065000000 0.0065000000 0.0065000000 0.0065000000 0.0065000000 0.0065000000 0.0065000000 0.0065000000 0.0065000000 0.0065000000 0.0065000000 0.0065000000 0.0065000000 0.0065000000 0.0065000000 0.0065000000 0.0065000000 0.0065000000 0.0065000000 0.0065000000 0.0065000000 0.0065000000 0.0065000000 0.0065000000 0.0065000000 0.0065000000 0.0065000000 0.0065000000 0.0065000000 0.0065000000 0.0065000000 0.0065000000 0.0065000000 0.0065000000 0.0065000000 0.0065000000 0.0065000000 0.0065000000 0.0065000000 0.0065000000 0.0065000000 0.0065000000 0.0065000000 0.0065000000 0.0065000000 0.0065000000 0.0065000000 0.0065000000 0.0065000000 0.0065000000 0.0065000000 0.0065000000 0.0065000000 0.0065000000 0.0065000000 0.0065000000 0.0065000000 0.0065000000 0.0065000000 0.0065000000 0.0065000000 0.0065000000 0.0065000000 0.0065000000 0.0065000000 0.0065000000 0.0065000000 0.0065000000 0.0065000000 0.0065000000 0.0065000000 0.0065000000 0.0065000000 0.0065000000 0.0065000000 0.0065000000 0.0065000000 0.0065000000 0.0065000000 0.0065000000 0.0065000000 0.0065000000 0.0065000000 0.0065000000 0.0065000000 0.0065000000 0.0065000000 0.0065000000 0.0065000000 0.0065000000 0.0065000000 0.0065000000 0.0065000000 0.0065000000 0.0065000000 0.0065000000 0.0065000000 0.0065000000 0.0065000000 0.0065000000 0.0065000000 0.0065000000 0.0065000000 0.0065000000 0.0065000000 0.0065000000 0.0065000000 0.0065000000 0.0065000000 0.0065000000 0.0065000000 0.0065000000 0.0065000000 0.0065000000 0.0065000000 0.0065000000 0.0065000000 0.0065000000 0.0065000000 0.0065000000 0.0065000000 0.0065000000 0.0065000000 0.0065000000 0.0065000000 0.0065000000 0.0065000000 0.0065000000 0.0065000000 0.0065000000 0.0065000000 0.0065000000 0.0065000000 0.0065000000 0.0065000000 0.0065000000 0.0065000000 0.0065000000 0.0065000000 0.0065000000 0.0065000000 0.0065000000 0.0065000000 0.0065000000 0.0065000000 0.0065000000 0.0065000000 0.0065000000 0.0065000000 0.0065000000 0.0065000000 0.0065000000 0.0065000000 0.0065000000 0.0065000000 0.0065000000 0.0065000000 0.0065000000 0.0065000000 0.0065000000 0.0065000000 0.0065000000 0.0065000000 0.0065000000 0.0065000000 0.0065000000 0.0065000000 0.0065000000 0.0065000000 0.0065000000 0.0065000000 0.0065000000 0.0065000000 0.0065000000 0.0065000000 0.0065000000 0.0065000000 0.0065000000 0.0065000000 0.0065000000 0.0065000000 0.0065000000 0.0065000000 0.0065000000 0.0065000000 0.0065000000 0.0065000000 0.0065000000 0.0065000000 0.0065000000 0.0065000000 0.0065000000 0.0065000000 0.0065000000 0.0065000000 0.0065000000 0.0065000000 0.0065000000 0.0065000000 0.0065000000 0.0065000000 0.0065000000 0.0065000000 0.0065000000 0.0065000000 0.0065000000 0.0065000000 0.0065000000 0.0065000000 0.0065000000 0.0065000000 0.0065000000 0.0065000000 0.0065000000 0.0065000000 0.0065000000 0.0065000000 0.0065000000 0.0065000000 0.0065000000 0.0065000000 0.0065000000 0.0065000000 0.0065000000 0.0065000000 0.0065000000 0.0065000000 0.0065000000 0.0065000000 0.0065000000 0.0065000000 0.0065000000 0.0065000000 0.0065000000 0.0065000000 0.0065000000 0.0065000000 0.0065000000 0.0065000000 0.0065000000 0.0065000000 0.0065000000 0.0065000000 0.0065000000 0.0065000000 0.0065000000 0.0065000000 0.0065000000 0.0065000000 0.0065000000 0.0065000000 0.0065000000 0.0065000000 0.0065000000 0.0065000000 0.0065000000 0.0065000000 0.0065000000 0.0065000000 0.0065000000 0.0065000000 0.0065000000 0.0065000000 0.0065000000 0.0065000000 0.0065000000 0.0065000000 0.0065000000 0.0065000000 0.0065000000 0.0065000000 0.0065000000 0.0065000000 0.0065000000 0.0065000000 0.0065000000 0.0065000000 0.0065000000 0.0065000000 0.0065000000 0.0065000000 0.0065000000 0.0065000000 0.0065000000 0.0065000000 0.0065000000 0.0065000000 0.0065000000 0.0065000000 0.0065000000 0.0065000000 0.0065000000 0.0065000000 0.0065000000 0.0065000000 0.0065000000 0.0065000000 0.0065000000 0.0065000000 0.0065000000 0.0065000000 0.0065000000 0.0065000000 0.0065000000 0.0065000000 0.0065000000 0.0065000000 0.0065000000 0.0065000000 0.0065000000 0.0065000000 0.0065000000 0.0065000000 0.0065000000 0.0065000000 0.0065000000 0.0065000000 0.0065000000 0.0065000000 0.0065000000 0.0065000000 0.0065000000 0.0065000000 0.0065000000 0.0065000000 0.0065000000 0.0065000000 0.0065000000 0.0065000000 0.0065000000 0.0065000000 0.0065000000 0.0065000000 0.0065000000 0.0065000000 0.0065000000 0.0065000000 0.0065000000 0.0065000000 0.0065000000 0.0065000000 0.0065000000 0.0065000000 0.0065000000 0.0065000000 0.0065000000 0.0065000000 0.0065000000 0.0065000000 0.0065000000 0.0065000000 0.0065000000 0.0065000000 0.0065000000 0.0065000000 0.0065000000 0.0065000000 0.0065000000 0.0065000000 0.0065000000 0.0065000000 0.0065000000 0.0065000000 0.0065000000 0.0065000000 0.0065000000 0.0065000000 0.0065000000 0.0065000000 0.0065000000 0.0065000000 0.0065000000 0.0065000000 0.0065000000 0.0065000000 0.0065000000 0.0065000000 0.0065000000 0.0065000000 0.0065000000 0.0065000000 0.0065000000 0.0065000000 0.0065000000 0.0065000000 0.0065000000 0.0065000000 0.0065000000 0.0065000000 0.0065000000 0.0065000000 0.0065000000 0.0065000000 0.0065000000 0.0065000000 0.0065000000 0.0065000000 0.0065000000 0.0065000000 0.0065000000 0.0065000000 0.0065000000 0.0065000000 0.0065000000 0.0065000000 0.0065000000 0.0065000000 0.0065000000 0.0065000000 0.0065000000 0.0065000000 0.0065000000 0.0065000000 0.0065000000 0.0065000000 0.0065000000 0.0065000000 0.0065000000 0.0065000000 0.0065000000 0.0065000000 0.0065000000 0.0065000000 0.0065000000 0.0065000000 0.0065000000 0.0065000000 0.0065000000 0.0065000000 0.0065000000 0.0065000000 0.0065000000 0.0065000000 0.0065000000 0.0065000000 0.0065000000 0.0065000000 0.0065000000 0.0065000000 0.0065000000 0.0065000000 0.0065000000 0.0065000000 0.0065000000 0.0065000000 0.0065000000 0.0065000000 0.0065000000 0.0065000000 0.0065000000 0.0065000000 0.0065000000 0.0065000000 0.0065000000 0.0065000000 0.0065000000 0.0065000000 0.0065000000 0.0065000000 0.0065000000 0.0065000000 0.0065000000 0.0065000000 0.0065000000 0.0065000000 0.0065000000 0.0065000000 0.0065000000 0.0065000000 0.0065000000 0.0065000000 0.0065000000 0.0065000000 0.0065000000 0.0065000000 0.0065000000 0.0065000000 0.0065000000 0.0065000000 0.0065000000 0.0065000000 0.0065000000 0.0065000000 0.0065000000 0.0065000000 0.0065000000 0.0065000000 0.0065000000 0.0065000000 0.0065000000 0.0065000000 0.0065000000 0.0065000000 0.0065000000 0.0065000000 0.0065000000 0.0065000000 0.0065000000 0.0065000000 0.0065000000 0.0065000000 0.0065000000 0.0065000000 0.0065000000 0.0065000000 0.0065000000 0.0065000000 0.0065000000 0.0065000000 0.0065000000 0.0065000000 0.0065000000 0.0065000000 0.0065000000 0.0065000000 0.0065000000 0.0065000000 0.006500000