<?xml version="1.0"?>
<VTKFile type="UnstructuredGrid" version="0.1" byte_order="LittleEndian">
  <UnstructuredGrid>
    <FieldData>
      <DataArray type="Float32" Name="TIME"  NumberOfTuples="1" format="ascii"> 2.4483137044 </DataArray>
      <DataArray type="Int32"   Name="STEP"  NumberOfTuples="1" format="ascii"> 32830 </DataArray>
    </FieldData>
    <Piece NumberOfPoints="18081" NumberOfCells="18081">
      <Points>
        <DataArray type="Float32" NumberOfComponents="3" format="ascii">
 0.0499658266 0.0903985697 0.0095495006 0.0050971803 0.0837379743 0.0006483937 0.0925026753 0.0706188361 0.0050049041 0.1002522956 0.0052418524 0.0089337075 0.1039183625 0.0382629782 0.0043374899 0.0203258569 0.0002309582 0.0146133586 0.4715130276 0.0094846253 0.0179822450 0.4167412574 0.0251694398 0.0116233408 0.4656594822 0.0009887830 0.0044066703 0.4329230329 0.0244894524 0.0101951035 0.4686205274 0.0234540118 0.0181274463 0.4981864135 0.0130144268 0.0085236549 0.4940331067 0.0102553723 0.0199256133 0.4093507182 0.0250006462 0.0282144590 0.4873053021 0.0532320299 0.0214998602 0.4614887333 0.0203682107 0.0337022467 0.4996336866 0.0091699219 0.0135906952 0.3968021080 0.0860729001 0.0335291010 0.4478536210 0.0217407896 0.0335398725 0.2217939284 0.0070398575 0.0089236518 0.4892765155 0.0012951250 0.0380488652 0.0779912933 0.0970317694 0.0004060891 0.0153996855 0.0392919106 0.0142931880 0.0715377635 0.0494765244 0.0052203118 0.0769079640 0.0492618075 0.0005719551 0.0345922602 0.0128959643 0.0058869930 0.3943812867 -0.0002889185 0.0076217839 0.4734200650 0.0015338928 0.0098752115 0.4248238842 0.0150318000 0.0042604365 0.4926639653 0.0172817212 0.0259694121 0.4552787486 0.0028859945 0.0045862637 0.4417836310 0.0617127424 0.0198414817 0.4973849087 0.0164576470 0.0235542011 0.4364840022 0.0562142453 0.0153379212 0.4896683145 0.0144864551 0.0097876079 0.4043522577 0.0307501301 0.0275600509 0.4610760895 0.0239553572 0.0147041053 0.4414182944 0.0246540910 0.0320906210 0.0668390505 0.0380669652 0.0144309682 0.0240291739 0.0136048351 0.0138342395 0.3838052713 0.0204167985 0.0240840785 0.3744505325 0.0888569332 0.0334172031 0.1394676731 0.0311328791 0.0080608461 0.0000976043 0.0754132324 0.0008850083 0.0684136434 0.0736856002 0.0004087986 0.2337996516 0.0779076338 0.0143115375 0.3759592695 0.0056155707 0.0215506915 0.4223114911 0.0291432071 0.0182404894 0.4561937770 0.0028457970 -0.0001434068 0.4991046875 0.0551492305 0.0054391222 0.4985485321 0.0675167048 0.0173945164 0.4424937801 0.0024164343 0.0099254663 0.3992260103 0.0534853314 0.0335214576 0.4004924665 0.0583048519 0.0043971591 0.4869829529 0.0527289362 0.0277446827 0.4803498570 0.0504148812 0.0083878258 0.3891804427 0.0166389863 0.0060179262 0.4191241966 0.0257572785 -0.0003810708 0.4581236962 0.0237595697 0.0275447101 0.0200266434 0.0589050497 0.0096163126 0.4635356715 0.0505247037 0.0308137708 0.4939950641 0.0488256364 0.0089748843 0.4431022231 0.0573073513 0.0163299479 0.0785356248 0.0587089136 0.0000716878 0.1036954115 0.0165404633 0.0114457767 0.0645729971 0.0752523304 0.0055685143 0.0844572945 0.0460998948 0.0082440551 0.3881688488 0.0091882167 0.0175501915 0.4137571920 0.0053603975 0.0066677400 0.4183122797 0.0013819377 0.0115609915 0.3682648609 0.0222041719 0.0306280720 0.3261529363 0.0012756642 0.0170779210 0.4861565461 0.0217099870 0.0004372004 0.4343813675 0.0755091831 0.0188442628 0.3930203042 0.0577414805 0.0132232596 0.4560817443 0.0221711126 0.0160438654 0.3767354748 0.0087828756 0.0139985408 0.3441981432 0.0491653588 0.0108858431 0.4143638096 0.0331439583 0.0311208102 0.3235368641 0.0156497062 0.0178475433 0.0201797303 0.0640757322 0.0105411832 0.0396801100 0.0981239417 0.0066275539 0.0475012499 0.0399681799 0.0199557749 0.4594060572 0.0899134358 0.0038960003 0.1741334283 0.0340807386 0.0058380626 0.2030548154 0.0209729713 0.0028406378 0.0370551090 0.0462514782 0.0003480869 0.3051699369 0.0003663935 0.0068203241 0.3624671945 0.0107261096 -0.0003607753 0.4162521404 -0.0003475078 0.0180369022 0.4570224078 0.0375773191 0.0000108831 0.4067944518 0.0077362667 0.0134058221 0.3875623865 0.0087886118 0.0122141233 0.3903681836 0.0282699275 0.0138880681 0.4702871853 0.0719274025 0.0027078563 0.4140020370 0.0716288567 0.0241250721 0.3897246545 0.0437744008 0.0236861549 0.4005659562 0.0426400811 0.0054508366 0.3352863312 0.0446264090 0.0195036577 0.4314731362 0.0525983030 0.0312896871 0.4752272926 0.0085287198 0.0330931051 0.4114106707 0.0282335083 0.0330180323 0.3832695998 0.0654351873 0.0291565951 0.4042399499 0.0051580230 0.0315956006 0.3966473408 0.0623254799 0.0319448371 0.1665757026 0.0238584970 0.0079681659 0.0829450358 0.0504226932 0.0001640512 0.0694418552 0.0667500803 0.0000494968 0.0080701672 0.0364781346 0.0030116048 0.4055446017 0.0115352909 0.0209202967 0.4614493106 0.0132081153 0.0007177089 0.3728657646 0.0337342550 0.0150487481 0.3934935828 0.0216862993 0.0319809965 0.3323621557 0.0587184859 0.0212551704 0.3814503418 0.0225951761 0.0048611695 0.4165252177 0.0368850108 0.0081859523 0.3902682867 0.0540150245 0.0109860184 0.4101725288 0.0602298729 0.0179362741 0.3857222937 0.0940917873 0.0310188932 0.4321466057 0.0437849209 0.0222066053 0.4149856025 0.0545056340 0.0264905899 0.2978360872 0.0088053137 0.0128403482 0.0912555478 0.0807991382 0.0094083489 0.3250656589 0.0076584711 0.0094957901 0.3952690439 0.0071049926 0.0359044295 0.4828077562 0.0564774269 0.0100004989 0.1738636021 0.0328074421 0.0000900849 0.2195440155 0.0124872252 0.0075511791 0.0662950884 0.0467564797 0.0000737868 0.3635178782 0.0130173641 0.0061528209 0.3780266771 0.0144349365 0.0166764237 0.3883937457 0.0000260806 0.0031511277 0.3550256161 0.0240410414 0.0051916532 0.4241235758 0.0188210080 0.0000324328 0.3529269476 0.0173850487 0.0125085563 0.3567994339 0.0197342451 0.0001505833 0.3825091437 0.0489064643 0.0055036459 0.4184920481 0.0403807777 0.0048649845 0.3631343645 0.0591573822 0.0241670799 0.4330123895 0.0647661411 0.0019790905 0.3095735363 0.0346054524 0.0000407074 0.4597826296 0.0649256209 0.0251052584 0.0111451704 0.0507710118 0.0065109434 0.1251020640 0.0450213432 0.0115568526 0.0821660724 0.0338161185 0.0128426091 0.0103110361 0.0820373334 0.0146427504 0.3748417794 0.1162239325 0.0355402664 0.1606665609 0.0214276357 0.0085936027 0.1161493106 0.0257550849 0.0022452235 0.1395210400 0.0181284638 -0.0000556475 0.3562367237 0.0004229042 0.0003111049 0.3719518035 0.0132741716 0.0219368415 0.3738330334 0.0001174722 0.0140557211 0.3781023975 0.0185274262 0.0010280880 0.3004977408 0.0459121008 0.0161226655 0.3969255041 0.0228221062 0.0005857545 0.3661031860 0.0244271011 0.0075150113 0.4074766291 0.0738072284 0.0002695398 0.4538910098 0.0563378772 0.0156434169 0.3417504555 0.0615709017 0.0108438863 0.3976209586 0.0345101939 0.0279725349 0.3660257989 0.0482744058 0.0222254453 0.3065889016 0.0387862629 0.0165599176 0.2979018429 0.0598785579 0.0154352011 0.0295314428 0.0597808740 0.0097834369 0.2909717057 0.0283560709 0.0095375549 0.2927761301 0.0422355414 0.0159044269 0.0690340144 0.0487509862 0.0187025126 0.1053669394 0.0180173557 0.0068590431 0.2189271613 0.0421214150 0.0058893041 0.1480446716 0.0221076735 0.0001490517 0.3517023838 0.0003487073 0.0109668432 0.4063992572 -0.0000757953 0.0122644223 0.3994382200 -0.0001378663 0.0123672167 0.3702474676 0.0076756923 0.0075759122 0.3301680049 0.0288733431 0.0056854662 0.0733494328 0.0100905447 0.0066070351 0.0085667464 0.0412610070 0.0003245129 0.3964218025 0.0555589368 0.0089659229 0.4090149123 0.0691839896 0.0008189558 0.3718164905 0.0571554097 0.0010973599 0.4187400007 0.0589034689 0.0173634672 0.4519539756 0.0563835877 0.0261615434 0.4604404433 0.0879974695 0.0176733391 0.4736020513 0.0808804213 0.0312393248 0.0213652021 0.0345077613 0.0046287027 0.0792606286 0.0293345097 0.0137167565 0.4507244410 0.0318086606 0.0110375192 0.0719663858 0.0470818375 0.0137349791 0.1886865622 0.0374084536 0.0083658433 0.1782157519 0.0552809969 0.0032747823 0.1916906411 0.0411733870 0.0000818248 0.3479471510 0.0001310471 0.0002189487 0.3893219672 0.0180692544 0.0201190065 0.3688590444 -0.0000622648 0.0015385425 0.3781188223 0.0128178085 0.0115112038 0.3725356717 0.0277160429 0.0017684767 0.3808237580 0.0198998432 0.0147089495 0.2816245740 0.0152133205 -0.0004317711 0.4007162478 0.0508771360 0.0002182495 0.4716801449 0.0448439667 0.0174552981 0.4090878614 0.0459847038 0.0157338293 0.4080774992 0.0121607044 0.0151733475 0.3618729173 0.0798772057 0.0283071589 0.2427550191 0.0098426237 -0.0001870497 0.3899661574 0.0663369643 0.0326921909 0.3299200696 0.0877671120 0.0190601443 0.4295440158 0.0638738672 0.0214263250 0.0468529901 0.0152175174 0.0173391322 0.4602274534 0.0641973293 0.0114948172 0.1801657468 0.0322440017 0.0000723457 0.1377682802 0.0405708494 -0.0000320599 0.0778996838 0.0391453259 0.0004399727 0.3480951036 0.0256207838 0.0062955393 0.3243742295 0.0336730346 0.0112697994 0.3972842012 0.0031365656 0.0249546833 0.3495482132 0.0301605585 0.0039944525 0.4075300334 0.0649887819 0.0004445184 0.0600306062 0.0518850454 0.0088542493 0.3531175345 0.0060316060 0.0001263712 0.4409521793 0.0646704388 0.0009758128 0.4837260047 0.0874950109 0.0011426900 0.3389897021 0.0696842788 0.0049852941 0.4811057591 0.0625931084 0.0076557599 0.3933042075 0.0569910147 0.0258093704 0.2555031600 0.0674273003 0.0098994450 0.2653680974 0.0644427097 0.0122936381 0.0878300691 0.0220219141 0.0001860754 0.2778693256 0.0704721228 0.0060349311 0.3974242217 0.1099144502 0.0237010598 0.4553610481 0.0680483693 0.0094440371 0.1820479151 0.0391027430 0.0071165917 0.1745916764 0.0616336678 0.0065350435 0.2028791900 0.0168612970 -0.0002655476 0.3377230400 0.0007427978 0.0119812599 0.0462956554 0.0386991124 0.0048672117 0.3403317061 0.0346267698 0.0049048435 0.3636163883 0.0205608896 0.0056245731 0.3285556247 0.0316133072 0.0100618663 0.4267260979 0.0339738532 0.0001040296 0.3442372512 0.0481152287 0.0047009423 0.4639088714 0.0430833270 0.0134709570 0.4585310367 0.0827171733 0.0200018011 0.4706517
[...]
      <PointData Scalars="smoothLength">
        <DataArray type="Float32" Name="smoothLength" format="ascii">
 0.0065000000 0.0065000000 0.0065000000 0.0065000000 0.0065000000 0.0065000000 0.0065000000 0.0065000000 0.0065000000 0.0065000000 0.0065000000 0.0065000000 0.0065000000 0.0065000000 0.0065000000 0.0065000000 0.0065000000 0.0065000000 0.0065000000 0.0065000000 0.0065000000 0.0065000000 0.0065000000 0.0065000000 0.0065000000 0.0065000000 0.0065000000 0.0065000000 0.0065000000 0.0065000000 0.0065000000 0.0065000000 0.0065000000 0.0065000000 0.0065000000 0.0065000000 0.0065000000 0.0065000000 0.0065000000 0.0065000000 0.0065000000 0.0065000000 0.0065000000 0.0065000000 0.0065000000 0.0065000000 0.0065000000 0.0065000000 0.0065000000 0.0065000000 0.0065000000 0.0065000000 0.0065000000 0.0065000000 0.0065000000 0.0065000000 0.0065000000 0.0065000000 0.0065000000 0.0065000000 0.0065000000 0.0065000000 0.0065000000 0.0065000000 0.0065000000 0.0065000000 0.0065000000 0.0065000000 0.0065000000 0.0065000000 0.0065000000 0.0065000000 0.0065000000 0.0065000000 0.0065000000 0.0065000000 0.0065000000 0.0065000000 0.0065000000 0.0065000000 0.0065000000 0.0065000000 0.0065000000 0.0065000000 0.0065000000 0.0065000000 0.0065000000 0.0065000000 0.0065000000 0.0065000000 0.0065000000 0.0065000000 0.0065000000 0.0065000000 0.0065000000 0.0065000000 0.0065000000 0.0065000000 0.0065000000 0.0065000000 0.0065000000 0.0065000000 0.0065000000 0.0065000000 0.0065000000 0.0065000000 0.0065000000 0.0065000000 0.0065000000 0.0065000000 0.0065000000 0.0065000000 0.0065000000 0.0065000000 0.0065000000 0.0065000000 0.0065000000 0.0065000000 0.0065000000 0.0065000000 0.0065000000 0.0065000000 0.0065000000 0.0065000000 0.0065000000 0.0065000000 0.0065000000 0.0065000000 0.0065000000 0.0065000000 0.0065000000 0.0065000000 0.0065000000 0.0065000000 0.0065000000 0.0065000000 0.0065000000 0.0065000000 0.0065000000 0.0065000000 0.0065000000 0.0065000000 0.0065000000 0.0065000000 0.0065000000 0.0065000000 0.0065000000 0.0065000000 0.0065000000 0.0065000000 0.0065000000 0.0065000000 0.0065000000 0.0065000000 0.0065000000 0.0065000000 0.0065000000 0.0065000000 0.0065000000 0.0065000000 0.0065000000 0.0065000000 0.0065000000 0.0065000000 0.0065000000 0.0065000000 0.0065000000 0.0065000000 0.0065000000 0.0065000000 0.0065000000 0.0065000000 0.0065000000 0.0065000000 0.0065000000 0.0065000000 0.0065000000 0.0065000000 0.0065000000 0.0065000000 0.0065000000 0.0065000000 0.0065000000 0.0065000000 0.0065000000 0.0065000000 0.0065000000 0.0065000000 0.0065000000 0.0065000000 0.0065000000 0.0065000000 0.0065000000 0.0065000000 0.0065000000 0.0065000000 0.0065000000 0.0065000000 0.0065000000 0.0065000000 0.0065000000 0.0065000000 0.0065000000 0.0065000000 0.0065000000 0.0065000000 0.0065000000 0.0065000000 0.0065000000 0.0065000000 0.0065000000 0.0065000000 0.0065000000 0.0065000000 0.0065000000 0.0065000000 0.0065000000 0.0065000000 0.0065000000 0.0065000000 0.0065000000 0.0065000000 0.0065000000 0.0065000000 0.0065000000 0.0065000000 0.0065000000 0.0065000000 0.0065000000 0.0065000000 0.0065000000 0.0065000000 0.0065000000 0.0065000000 0.0065000000 0.0065000000 0.0065000000 0.0065000000 0.0065000000 0.0065000000 0.0065000000 0.0065000000 0.0065000000 0.0065000000 0.0065000000 0.0065000000 0.0065000000 0.0065000000 0.0065000000 0.0065000000 0.0065000000 0.0065000000 0.0065000000 0.0065000000 0.0065000000 0.0065000000 0.0065000000 0.0065000000 0.0065000000 0.0065000000 0.0065000000 0.0065000000 0.0065000000 0.0065000000 0.0065000000 0.0065000000 0.0065000000 0.0065000000 0.0065000000 0.0065000000 0.0065000000 0.0065000000 0.0065000000 0.0065000000 0.0065000000 0.0065000000 0.0065000000 0.0065000000 0.0065000000 0.0065000000 0.0065000000 0.0065000000 0.0065000000 0.0065000000 0.0065000000 0.0065000000 0.0065000000 0.0065000000 0.0065000000 0.0065000000 0.0065000000 0.0065000000 0.0065000000 0.0065000000 0.0065000000 0.0065000000 0.0065000000 0.0065000000 0.0065000000 0.0065000000 0.0065000000 0.0065000000 0.0065000000 0.0065000000 0.0065000000 0.0065000000 0.0065000000 0.0065000000 0.0065000000 0.0065000000 0.0065000000 0.0065000000 0.0065000000 0.0065000000 0.0065000000 0.0065000000 0.0065000000 0.0065000000 0.0065000000 0.0065000000 0.0065000000 0.0065000000 0.0065000000 0.0065000000 0.0065000000 0.0065000000 0.0065000000 0.0065000000 0.0065000000 0.0065000000 0.0065000000 0.0065000000 0.0065000000 0.0065000000 0.0065000000 0.0065000000 0.0065000000 0.0065000000 0.0065000000 0.0065000000 0.0065000000 0.0065000000 0.0065000000 0.0065000000 0.0065000000 0.0065000000 0.0065000000 0.0065000000 0.0065000000 0.0065000000 0.0065000000 0.0065000000 0.0065000000 0.0065000000 0.0065000000 0.0065000000 0.0065000000 0.0065000000 0.0065000000 0.0065000000 0.0065000000 0.0065000000 0.0065000000 0.0065000000 0.0065000000 0.0065000000 0.0065000000 0.0065000000 0.0065000000 0.0065000000 0.0065000000 0.0065000000 0.0065000000 0.0065000000 0.0065000000 0.0065000000 0.0065000000 0.0065000000 0.0065000000 0.0065000000 0.0065000000 0.0065000000 0.0065000000 0.0065000000 0.0065000000 0.0065000000 0.0065000000 0.0065000000 0.0065000000 0.0065000000 0.0065000000 0.0065000000 0.0065000000 0.0065000000 0.0065000000 0.0065000000 0.0065000000 0.0065000000 0.0065000000 0.0065000000 0.0065000000 0.0065000000 0.0065000000 0.0065000000 0.0065000000 0.0065000000 0.0065000000 0.0065000000 0.0065000000 0.0065000000 0.0065000000 0.0065000000 0.0065000000 0.0065000000 0.0065000000 0.0065000000 0.0065000000 0.0065000000 0.0065000000 0.0065000000 0.0065000000 0.0065000000 0.0065000000 0.0065000000 0.0065000000 0.0065000000 0.0065000000 0.0065000000 0.0065000000 0.0065000000 0.0065000000 0.0065000000 0.0065000000 0.0065000000 0.0065000000 0.0065000000 0.0065000000 0.0065000000 0.0065000000 0.0065000000 0.0065000000 0.0065000000 0.0065000000 0.0065000000 0.0065000000 0.0065000000 0.0065000000 0.0065000000 0.0065000000 0.0065000000 0.0065000000 0.0065000000 0.0065000000 0.0065000000 0.0065000000 0.0065000000 0.0065000000 0.0065000000 0.0065000000 0.0065000000 0.0065000000 0.0065000000 0.0065000000 0.0065000000 0.0065000000 0.0065000000 0.0065000000 0.0065000000 0.0065000000 0.0065000000 0.0065000000 0.0065000000 0.0065000000 0.0065000000 0.0065000000 0.0065000000 0.0065000000 0.0065000000 0.0065000000 0.0065000000 0.0065000000 0.0065000000 0.0065000000 0.0065000000 0.0065000000 0.0065000000 0.0065000000 0.0065000000 0.0065000000 0.0065000000 0.0065000000 0.0065000000 0.0065000000 0.0065000000 0.0065000000 0.0065000000 0.0065000000 0.0065000000 0.0065000000 0.0065000000 0.0065000000 0.0065000000 0.0065000000 0.0065000000 0.0065000000 0.0065000000 0.0065000000 0.0065000000 0.0065000000 0.0065000000 0.0065000000 0.0065000000 0.0065000000 0.0065000000 0.0065000000 0.0065000000 0.0065000000 0.0065000000 0.0065000000 0.0065000000 0.0065000000 0.0065000000 0.0065000000 0.0065000000 0.0065000000 0.0065000000 0.0065000000 0.0065000000 0.0065000000 0.0065000000 0.0065000000 0.0065000000 0.0065000000 0.0065000000 0.0065000000 0.0065000000 0.0065000000 0.0065000000 0.0065000000 0.0065000000 0.0065000000 0.0065000000 0.0065000000 0.0065000000 0.0065000000 0.0065000000 0.0065000000 0.0065000000 0.0065000000 0.0065000000 0.0065000000 0.0065000000 0.0065000000 0.0065000000 0.0065000000 0.0065000000 0.0065000000 0.0065000000 0.0065000000 0.0065000000 0.0065000000 0.0065000000 0.0065000000 0.0065000000 0.0065000000 0.0065000000 0.0065000000 0.0065000000 0.0065000000 0.0065000000 0.0065000000 0.0065000000 0.0065000000 0.0065000000 0.0065000000 0.0065000000 0.0065000000 0.0065000000 0.0065000000 0.0065000000 0.0065000000 0.0065000000 0.0065000000 0.0065000000 0.0065000000 0.0065000000 0.0065000000 0.0065000000 0.0065000000 0.0065000000 0.0065000000 0.0065000000 0.0065000000 0.0065000000 0.0065000000 0.0065000000 0.0065000000 0.0065000000 0.0065000000 0.0065000000 0.0065000000 0.0065000000 0.0065000000 0.0065000000 0.0065000000 0.0065000000 0.0065000000 0.0065000000 0.0065000000 0.0065000000 0.0065000000 0.0065000000 0.0065000000 0.0065000000 0.0065000000 0.0065000000 0.0065000000 0.0065000000 0.0065000000 0.0065000000 0.0065000000 0.0065000000 0.0065000000 0.0065000000 0.0065000000 0.0065000000 0.0065000000 0.0065000000 0.0065000000 0.0065000000 0.0065000000 0.0065000000 0.0065000000 0.0065000000 0.0065000000 0.0065000000 0.0065000000 0.0065000000 0.0065000000 0.0065000000 0.0065000000 0.0065000000 0.0065000000 0.0065000000 0.0065000000 0.0065000000 0.0065000000 0.0065000000 0.0065000000 0.0065000000 0.0065000000 0.0065000000 0.0065000000 0.0065000000 0.0065000000 0.0065000000 0.0065000000 0.0065000000 0.0065000000 0.0065000000 0.0065000000 0.0065000000 0.0065000000 0.0065000000 0.0065000000 0.0065000000 0.0065000000 0.0065000000 0.0065000000 0.0065000000 0.0065000000 0.0065000000 0.0065000000 0.0065000000 0.0065000000 0.0065000000 0.0065000000 0.0065000000 0.0065000000 0.0065000000 0.0065000000 0.0065000000 0.0065000000 0.0065000000 0.0065000000 0.0065000000 0.0065000000 0.0065000000 0.0065000000 0.0065000000 0.0065000000 0.0065000000 0.0065000000 0.0065000000 0.0065000000 0.0065000000 0.0065000000 0.0065000000 0.0065000000 0.0065000000 0.0065000000 0.0065000000 0.0065000000 0.0065000000 0.0065000000 0.0065000000 0.0065000000 0.0065000000 0.0065000000 0.0065000000 0.0065000000 0.0065000000 0.0065000000 0.0065000000 0.0065000000 0.0065000000 0.0065000000 0.0065000000 0.0065000000 0.0065000000 0.0065000000 0.0065000000 0.0065000000 0.0065000000 0.0065000000 0.0065000000 0.0065000000 0.0065000000 0.0065000000 0.0065000000 0.0065000000 0.0065000000 0.0065000000 0.0065000000 0.0065000000 0.0065000000 0.0065000000 0.0065000000 0.0065000000 0.0065000000 0.0065000000 0.0065000000 0.0065000000 0.0065000000 0.0065000000 0.0065000000 0.0065000000 0.0065000000 0.0065000000 0.0065000000 0.0065000000 0.0065000000 0.0065000000 0.0065000000 0.0065000000 0.0065000000 0.0065000000 0.0065000000 0.0065000000 0.0065000000 0.0065000000 0.0065000000 0.0065000000 0.0065000000 0.0065000000 0.0065000000 0.0065000000 0.0065000000 0.0065000000 0.0065000000 0.0065000000 0.0065000000 0.0065000000 0.0065000000 0.0065000000 0.0065000000 0.0065000000 0.0065000000 0.0065000000 0.0065000000 0.0065000000 0.0065000000 0.0065000000 0.0065000000 0.0065000000 0.0065000000 0.0065000000 0.0065000000 0.0065000000 0.0065000000 0.0065000000 0.0065000000 0.0065000000 0.0065000000 0.0065000000 0.0065000000 0.0065000000 0.0065000000 0.0065000000 0.0065000000 0.0065000000 0.0065000000 0.0065000000 0.0065000000 0.0065000000 0.0065000000 0.0065000000 0.0065000000 0.0065000000 0.0065000000 0.0065000000 0.0065000000 0.0065000000 0.0065000000 0.0065000000 0.0065000000 0.0065000000 0.0065000000 0.0065000000 0.0065000000 0.0065000000 0.0065000000 0.0065000000 0.0065000000 0.0065000000 0.0065000000 0.0065000000 0.0065000000 0.0065000000 0.0065000000 0.0065000000 0.0065000000 0.0065000000 0.0065000000 0.0065000000 0.0065000000 0.0065000000 0.0065000000 0.0065000000 0.0065000000 0.0065000000 0.0065000000 0.0065000000 0.0065000000 0.0065000000 0.0065000000 0.0065000000 0.0065000000 0.0065000000 0.0065000000 0.0065000000 0.0065000000 0.0065000000 0.0065000000 0.0065000000 0.0065000000 0.0065000000 0.0065000000 0.0065000000 0.0065000000 0.0065000000 0.0065000000 0.0065000000 0.0065000000 0.0065000000 0.0065000000 0.0065000000 0.0065000000 0.0065000000 0.0065000000 0.0065000000 0.0065000000 0.0065000000 0.0065000000 0.0065000000 0.0065000000 0.0065000000 0.0065000000 0.0065000000 0.0065000000 0.0065000000 0.0065000000 0.0065000000 0.0065000000 0.0065000000 0.0065000000 0.0065000000 0.0065000000 0.0065000000 0.0065000000 0.0065000000 0.0065000000 0.0065000000 0.0065000000 0.0065000000 0.0065000000 0.0065000000 0.0065000000 0.0065000000 0.0065000000 0.0065000000 0.0065000000 0.0065000000 0.0065000000 0.0065000000 0.0065000000 0.0065000000 0.0065000000 0.0065000000 0.0065000000 0.0065000000 0.0065000000 0.0065000000 0.0065000000 0.0065000000 0.0065000000 0.0065000000 0.0065000000 0.0065000000 0.0065000000 0.0065000000 0.0065000000 0.0065000000 0.0065000000 0.0065000000 0.0065000000 0.0065000000 0.0065000000 0.0065000000 0.0065000000 0.0065000000 0.0065000000 0.0065000000 0.0065000000 0.0065000000 0.0065000000 0.0065000000 0.0065000000 0.0065000000 0.0065000000 0.0065000000 0.0065000000 0.0065000000 0.0065000000 0.0065000000 0.0065000000 0.0065000000 0.0065000000 0.0065000000 0.0065000000 0.0065000000 0.0065000000 0.0065000000 0.0065000000 0.0065000000 0.0065000000 0.0065000000 0.0065000000 0.0065000000 0.0065000000 0.0065000000 0.0065000000 0.0065000000 0.0065000000 0.0065000000 0.0065000000 0.0065000000 0.0065000000 0.0065000000 0.0065000000 0.0065000000 0.0065000000 0.0065000000 0.0065000000 0.0065000000 0.0065000000 0.0065000000 0.0065000000 0.0065000000 0.0065000000 0.0065000000 0.0065000000 0.0065000000 0.0065000000 0.0065000000 0.0065000000 0.0065000000 0.0065000000 0.0065000000 0.0065000000 0.0065000000 0.0065000000 0.0065000000 0.0065000000 0.0065000000 0.0065000000 0.0065000000 0.0065000000 0.0065000000 0.0065000000 0.0065000000 0.0065000000 0.0065000000 0.0065000000 0.0065000000 0.0065000000 0.0065000000 0.0065000000 0.0065000000 0.0065000000 0.0065000000 0.0065000000 0.0065000000 0.0065000000 0.0065000000 0.0065000000 0.0065000000 0.0065000000 0.0065000000 0.0065000000 0.0065000000 0.0065000000 0.0065000000 0.0065000000 0.0065000000 0.0065000000 0.0065000000 0.0065000000 0.0065000000 0.0065000000 0.0065000000 0.0065000000 0.0065000000 0.0065000000 0.0065000000 0.0065000000 0.0065000000 0.0065000000 0.0065000000 0.0065000000 0.0065000000 0.0065000000 0.0065000000 0.0065000000 0.0065000000 0.0065000000 0.0065000000 0.0065000000 0.0065000000 0.0065000000 0.0065000000 0.0065000000 0.0065000000 0.0065000000 0.0065000000 0.0065000000 0.0065000000 0.0065000000 0.0065000000 0.0065000000 0.0065000000 0.0065000000 0.0065000000 0.0065000000 0.0065000000 0.0065000000 0.0065000000 0.0065000000 0.0065000000 0.0065000000 0.0065000000 0.0065000000 0.0065000000 0.0065000000 0.0065000000 0.0065000000 0.0065000000 0.0065000000 0.0065000000 0.0065000000 0.0065000000 0.0065000000 0.0065000000 0.0065000000 0.0065000000 0.0065000000 0.0065000000 0.0065000000 0.0065000000 0.0065000000 0.0065000000 0.0065000000 0.0065000000 0.0065000000 0.0065000000 0.0065000000 0.0065000000 0.0065000000 0.0065000000 0.0065000000 0.0065000000 0.0065000000 0.0065000000 0.0065000000 0.0065000000 0.0065000000 0.0065000000 0.0065000000 0.0065000000 0.0065000000 0.0065000000 0.0065000000 0.0065000000 0.0065000000 0.0065000000 0.0065000000 0.0065000000 0.0065000000 0.0065000000 0.0065000000 0.0065000000 0.0065000000 0.0065000000 0.0065000000 0.0065000000 0.0065000000 0.0065000000 0.0065000000 0.0065000000 0.0065000000 0.0065000000 0.0065000000 0.0065000000 0.0065000000 0.0065000000 0.0065000000 0.0065000000 0.0065000000 0.0065000000 0.0065000000 0.0065000000 0.0065000000 0.0065000000 0.0065000000 0.0065000000 0.0065000000 0.0065000000 0.0065000000 0.0065000000 0.0065000000 0.0065000000 0.0065000000 0.0065000000 0.0065000000 0.0065000000 0.0065000000 0.0065000000 0.0065000000 0.0065000000 0.0065000000 0.0065000000 0.0065000000 0.0065000000 0.0065000000 0.0065000000 0.0065000000 0.0065000000 0.0065000000 0.0065000000 0.0065000000 0.0065000000 0.0065000000 0.0065000000 0.0065000000 0.0065000000 0.0065000000 0.0065000000 0.0065000000 0.0065000000 0.0065000000 0.0065000000 0.0065000000 0.0065000000 0.0065000000 0.0065000000 0.0065000000 0.0065000000 0.0065000000 0.0065000000 0.0065000000 0.0065000000 0.0065000000 0.0065000000 0.0065000000 0.0065000000 0.0065000000 0.0065000000 0.0065000000 0.0065000000 0.0065000000 0.0065000000 0.0065000000 0.0065000000 0.0065000000 0.0065000000 0.0065000000 0.0065000000 0.0065000000 0.0065000000 0.0065000000 0.0065000000 0.0065000000 0.0065000000 0.0065000000 0.0065000000 0.0065000000 0.0065000000 0.0065000000 0.0065000000 0.0065000000 0.0065000000 0.0065000000 0.0065000000 0.0065000000 0.0065000000 0.0065000000 0.0065000000 0.0065000000 0.0065000000 0.0065000000 0.0065000000 0.0065000000 0.0065000000 0.0065000000 0.0065000000 0.0065000000 0.0065000000 0.0065000000 0.0065000000 0.0065000000 0.0065000000 0.0065000000 0.0065000000 0.0065000000 0.0065000000 0.0065000000 0.0065000000 0.0065000000 0.0065000000 0.0065000000 0.0065000000 0.0065000000 0.0065000000 0.0065000000 0.0065000000 0.0065000000 0.0065000000 0.0065000000 0.0065000000 0.0065000000 0.0065000000 0.0065000000 0.0065000000 0.0065000000 0.0065000000 0.0065000000 0.0065000000 0.0065000000 0.0065000000 0.0065000000 0.0065000000 0.0065000000 0.0065000000 0.0065000000 0.0065000000 0.0065000000 0.0065000000 0.0065000000 0.0065000000 0.0065000000 0.0065000000 0.0065000000 0.0065000000 0.0065000000 0.0065000000 0.0065000000 0.0065000000 0.0065000000 0.0065000000 0.0065000000 0.0065000000 0.0065000000 0.0065000000 0.0065000000 0.0065000000 0.0065000000 0.0065000000 0.0065000000 0.0065000000 0.0065000000 0.0065000000 0.0065000000 0.0065000000 0.0065000000 0.0065000000 0.0065000000 0.0065000000 0.0065000000 0.0065000000 0.0065000000 0.0065000000 0.0065000000 0.0065000000 0.0065000000 0.0065000000 0.0065000000 0.0065000000 0.0065000000 0.0065000000 0.0065000000 0.0065000000 0.0065000000 0.0065000000 0.0065000000 0.0065000000 0.0065000000 0.0065000000 0.0065000000 0.0065000000 0.0065000000 0.0065000000 0.0065000000 0.0065000000 0.0065000000 0.0065000000 0.0065000000 0.0065000000 0.0065000000 0.0065000000 0.0065000000 0.0065000000 0.0065000000 0.0065000000 0.0065000000 0.0065000000 0.0065000000 0.0065000000 0.0065000000 0.0065000000 0.0065000000 0.0065000000 0.0065000000 0.0065000000 0.0065000000 0.0065000000 0.0065000000 0.0065000000 0.0065000000 0.0065000000 0.0065000000 0.0065000000 0.0065000000 0.0065000000 0.0065000000 0.0065000000 0.0065000000 0.0065000000 0.0065000000 0.0065000000 0.0065000000 0.0065000000 0.0065000000 0.0065000000 0.0065000000 0.0065000000 0.0065000000 0.0065000000 0.0065000000 0.0065000000 0.0065000000 0.0065000000 0.0065000000 0.0065000000 0.0065000000 0.0065000000 0.0065000000 0.0065000000 0.0065000000 0.0065000000 0.0065000000 0.0065000000 0.0065000000 0.0065000000 0.0065000000 0.0065000000 0.0065000000 0.0065000000 0.0065000000 0.0065000000 0.0065000000 0.0065000000 0.0065000000 0.0065000000 0.0065000000 0.0065000000 0.0065000000 0.0065000000 0.0065000000 0.0065000000 0.0065000000 0.0065000000 0.0065000000 0.0065000000 0.0065000000 0.0065000000 0.0065000000 0.0065000000 0.0065000000 0.0065000000 0.0065000000 0.0065000000 0.0065000000 0.0065000000 0.0065000000 0.0065000000 0.0065000000 0.0065000000 0.0065000000 0.0065000000 0.0065000000 0.0065000000 0.0065000000 0.0065000000 0.0065000000 0.0065000000 0.0065000000 0.0065000000 0.0065000000 0.0065000000 0.0065000000 0.0065000000 0.0065000000 0.0065000000 0.0065000000 0.0065000000 0.0065000000 0.0065000000 0.0065000000 0.0065000000 0.0065000000 0.0065000000 0.0065000000 0.0065000000 0.0065000000 0.0065000000 0.0065000000 0.0065000000 0.0065000000 0.0065000000 0.0065000000 0.0065000000 0.0065000000 0.0065000000 0.0065000000 0.0065000000 0.0065000000 0.0065000000 0.0065000000 0.0065000000 0.0065000000 0.0065000000 0.0065000000 0.0065000000 0.0065000000 0.0065000000 0.0065000000 0.0065000000 0.0065000000 0.0065000000 0.0065000000 0.0065000000 0.0065000000 0.0065000000 0.0065000000 0.0065000000 0.0065000000 0.0065000000 0.0065000000 0.0065000000 0.0065000000 0.0065000000 0.0065000000 0.0065000000 0.0065000000 0.0065000000 0.0065000000 0.0065000000 0.0065000000 0.0065000000 0.0065000000 0.0065000000 0.0065000000 0.0065000000 0.0065000000 0.0065000000 0.0065000000 0.0065000000 0.0065000000 0.0065000000 0.0065000000 0.0065000000 0.0065000000 0.0065000000 0.0065000000 0.0065000000 0.0065000000 0.0065000000 0.0065000000 0.0065000000 0.0065000000 0.0065000000 0.0065000000 0.0065000000 0.0065000000 0.0065000000 0.0065000000 0.0065000000 0.0065000000 0.0065000000 0.006500000