<?xml version="1.0"?>
<VTKFile type="UnstructuredGrid" version="0.1" byte_order="LittleEndian">
  <UnstructuredGrid>
    <FieldData>
      <DataArray type="Float32" Name="TIME"  NumberOfTuples="1" format="ascii"> 1.4490019883 </DataArray>
      <DataArray type="Int32"   Name="STEP"  NumberOfTuples="1" format="ascii"> 19430 </DataArray>
    </FieldData>
    <Piece NumberOfPoints="18081" NumberOfCells="18081">
      <Points>
        <DataArray type="Float32" NumberOfComponents="3" format="ascii">
 0.0017660241 0.0143006120 0.0000790817 0.0001164628 0.0035362271 0.0074774091 0.0138629141 0.0415611256 0.0002446780 0.0693833074 0.0368285313 0.0327038016 0.0171243022 0.0460606089 0.0040995418 0.0603353449 -0.0002547561 0.0287962216 0.3122273812 0.0024458321 0.0034550167 0.3706151482 0.0084957619 0.0067624989 0.4486806846 -0.0015094081 0.0089086531 0.3272788964 0.0122029086 0.0067764113 0.4640833440 0.0132724371 0.0226752813 0.4717907750 0.0039659834 0.0233324940 0.4564465966 0.0128802733 0.0243379457 0.4307312664 0.0386165350 0.0123328071 0.3773137998 0.0249784261 0.0083381389 0.3052684766 0.0283724331 0.0060989466 0.4774393379 -0.0011894260 0.0089919807 0.1937853953 0.0493551148 0.0149226811 0.0937755870 0.0310473017 0.0383353928 0.0980366583 0.0443438150 0.0287602127 0.4764528351 0.0037060712 0.0279014552 0.0064506982 0.0446147471 0.0093634644 0.0001906857 0.0019922754 0.0305126540 0.0521791597 0.0288924912 0.0099887280 0.0568157910 0.0347374838 0.0075528174 0.0728006236 0.0030153984 0.0345289362 0.3528857308 0.0073341058 0.0045835478 0.4191330972 0.0012782149 0.0039271425 0.3975667678 0.0068787370 0.0012010331 0.2451872998 0.0116302845 0.0069351857 0.4556886571 -0.0003154811 0.0169888344 0.4292056952 0.0300780349 0.0120299153 0.4871840098 0.0191434445 0.0214494838 0.4392205390 0.0276468443 0.0139608953 0.4395964567 0.0006984086 0.0126827462 0.4017011896 0.0171201751 0.0087690526 0.3971826416 0.0026898371 0.0090322206 0.3854545320 0.0158940741 0.0077220311 0.0433902335 0.0197216480 0.0307845936 0.0589605327 0.0079641276 0.0475295897 0.0966436974 0.0006180317 0.0387082484 0.1582767965 0.0502701923 0.0158470315 0.0262772747 0.0548027593 0.0020110361 0.0045116611 0.0020041259 0.0001378623 0.0429527691 0.0293297911 -0.0004178369 0.0583343574 0.0728152466 0.0303420939 0.1461025068 0.0058503772 0.0053295044 0.2076480346 0.0095691240 0.0030861283 0.4291389569 0.0000865864 -0.0003056563 0.4887793559 0.0124734375 -0.0001003517 0.4930809906 0.0263940262 0.0062059368 0.4272701091 0.0089831808 0.0024099143 0.4220588430 0.0398422792 0.0114514016 0.4346558338 0.0297711161 0.0066881935 0.4645401265 0.0552005070 0.0221946942 0.4698677456 0.0250054357 0.0036095050 0.3373411994 0.0245842051 0.0041758506 0.4038797914 0.0136915289 0.0075065759 0.4478019329 0.0160204716 0.0193176009 0.0134262952 0.0087556892 0.0342484289 0.4368666970 0.0496358704 0.0149292888 0.4998062343 0.0179060619 0.0032065665 0.4505149995 0.0377193709 0.0174625321 0.0442077666 0.0345149417 0.0001417321 0.0407539085 0.0410507838 0.0114538523 0.0524999157 0.0216106244 0.0003644715 0.0505165125 0.0342429156 0.0080105210 0.1742175801 0.0003623028 0.0014305168 0.3217357580 0.0003910622 -0.0013157064 0.3778004974 0.0029220393 0.0034904473 0.1656073446 -0.0005270005 0.0136385610 0.0940737733 0.0105448268 0.0292812985 0.4744412133 0.0025058834 0.0074073983 0.4326765991 0.0499548056 0.0104540405 0.4218299300 0.0510455579 0.0093988307 0.4563734794 0.0170918097 0.0152722272 0.2914096696 0.0119880064 -0.0004968118 0.2099336286 0.0292471181 0.0107531636 0.3982260457 0.0421307229 0.0079791885 0.1229422462 0.0370136261 0.0191734159 0.0121042877 0.0142926097 0.0249669663 0.0037444652 0.0293525889 0.0085887677 0.0229736848 0.0122917880 0.0427884812 0.4886388048 0.0689596933 0.0024866180 0.0646645631 0.0454330403 0.0105597792 0.0774496158 0.0478662954 0.0086572893 0.0736180589 0.0216430029 -0.0000946305 0.1157273709 -0.0000471922 0.0004446855 0.1458039328 0.0050240947 0.0002640210 0.3336357863 0.0092113502 0.0063244981 0.4630472167 0.0105764464 -0.0007236447 0.3171388518 0.0170188517 0.0056530887 0.1637177198 0.0015694001 0.0095285242 0.3097028319 0.0197046145 0.0053849510 0.4704011817 0.0419186004 0.0002843988 0.4454648539 0.0433260126 0.0154965016 0.4135433421 0.0539804874 0.0099423247 0.3786793646 0.0466287203 0.0064170999 0.2126801259 0.0499477817 0.0085206158 0.2548058939 0.0487350543 0.0049468554 0.0910277105 0.0259997957 0.0449172815 0.0884764385 0.0156879654 0.0438527992 0.2082267626 0.0561934794 0.0115520850 0.0945622256 0.0470914529 0.0445940633 0.4267013396 0.0479293405 0.0120751146 0.0651467065 0.0450569784 -0.0001595893 0.0591716786 0.0348528456 -0.0003382123 0.0619019834 0.0214839865 0.0001026425 0.0342010379 -0.0003197064 0.0050371723 0.1889892983 0.0055864940 0.0007499940 0.4445051071 0.0063462520 -0.0008851018 0.2523371666 0.0294047311 0.0048758128 0.1994700317 0.0206463789 0.0143053541 0.1774937125 0.0261183158 0.0140491860 0.3364148231 0.0166753166 -0.0007575455 0.4452935576 0.0318781351 0.0098017697 0.4037913936 0.0427364483 0.0030990665 0.4359377154 0.0512595333 0.0051851416 0.4862973533 0.0747690898 0.0204438350 0.2960053841 0.0570169167 0.0057428396 0.4290291149 0.0343918598 0.0079475627 0.1329372314 0.0391693057 0.0158023626 0.0067495389 0.0446492211 0.0266247140 0.1366197674 0.0427011789 0.0093895252 0.0925967892 0.0360958966 0.0454265774 0.4662521814 0.0375190848 0.0242603991 0.0781635125 0.0492568656 0.0032933097 0.0821148264 0.0471070478 0.0051219584 0.0704197862 0.0250060509 0.0063982087 0.1477870939 0.0097714801 0.0002150060 0.2507973856 -0.0002111041 -0.0007542812 0.3593959852 0.0056952412 -0.0005652200 0.2839188236 0.0208490321 -0.0008476399 0.4008518722 0.0092750936 -0.0007873103 0.1332145165 0.0168636272 0.0087201821 0.3048092881 0.0234511429 0.0013146160 0.3984598357 0.0455359952 0.0051395761 0.4419408015 0.0236548241 0.0063860090 0.3262803509 0.0618631618 0.0050387589 0.4631579511 0.0654200882 0.0012254638 0.2887041325 0.0338587778 0.0004965433 0.2658704070 0.0638533027 0.0044752027 0.0325670809 0.0058253814 0.0109372542 0.0149985015 0.0381007194 0.0324118656 0.0193758547 0.0339781392 0.0171323475 0.0006914441 0.0486968122 0.0211927096 0.1815848991 0.0497297790 0.0189672147 0.0592132574 0.0405950131 0.0033671963 0.0738112134 0.0375551624 -0.0002759147 0.0922412761 0.0382913182 0.0051486743 0.1277785821 0.0032298357 0.0008351393 0.1649465051 0.0013291623 0.0059198932 0.3066431335 -0.0005233556 0.0012124132 0.3563191621 0.0217482202 -0.0012540599 0.1554470650 0.0421041163 0.0148563822 0.3652743427 0.0199943208 0.0030214135 0.1665043433 0.0098738315 -0.0000877014 0.4102854322 0.0425853709 0.0019522048 0.4679567476 0.0806974676 0.0071461585 0.2962450072 0.0517506101 0.0040687860 0.4248805471 0.0478400163 0.0053435053 0.2967907761 0.0405242397 0.0045547677 0.1786069070 0.0415526668 0.0162977440 0.1692064872 0.0589676322 0.0163184066 0.0255517810 0.0089402096 0.0283352738 0.1723426982 0.0509573956 0.0112600287 0.1210374277 0.0505178106 0.0217760844 0.0061802581 0.0264954387 0.0380833161 0.0553411132 0.0395349148 -0.0004953099 0.0768130067 0.0652720061 0.0228416342 0.0983037026 0.0385042764 0.0009509563 0.1144223467 0.0030439167 0.0082392815 0.2558107409 0.0061563280 0.0051372022 0.3324390493 -0.0003128368 -0.0008891101 0.3143816101 0.0155503053 -0.0004631468 0.2459255433 0.0295754344 -0.0003007389 0.0779899736 0.0247584186 0.0388705335 0.0554243077 0.0032270182 0.0050087972 0.4085703360 0.0368820301 -0.0001049357 0.4136527613 0.0463169135 0.0033911437 0.3894108598 0.0559761756 0.0037895509 0.4463528674 0.0379641697 0.0187540551 0.3182687867 0.0698141626 0.0059834763 0.4415122584 0.0577031336 0.0153064828 0.1349283418 0.0689502825 0.0173658963 0.0585597413 0.0070144686 0.0212078728 0.0402687621 0.0303808628 0.0177563047 0.0901314761 0.0112539014 0.0493802711 0.0153194961 0.0178370038 0.0369152441 0.0675340100 0.0485531557 0.0035980283 0.0702976627 0.0721519300 -0.0004681333 0.0831435521 0.0688909124 0.0026027222 0.1251093151 0.0061051222 0.0010596467 0.2312737441 0.0224201754 0.0052827154 0.2899249752 0.0080326081 0.0012383750 0.2979418539 0.0132513747 -0.0004046560 0.3461943500 0.0262188814 -0.0006645028 0.3158027616 0.0264244000 0.0020454316 0.1883701936 0.0421586751 -0.0010169897 0.3966228764 0.0288450594 0.0064547442 0.4841489558 0.0560013348 0.0043718925 0.3600959390 0.0614345339 0.0064412143 0.3525965491 0.0188708933 0.0060302287 0.1915581817 0.0606465332 0.0193267040 0.1841056002 0.0448897078 -0.0000995604 0.1527805922 0.0715801032 0.0169215182 0.0944406076 0.0597494114 0.0454674929 0.3344384073 0.0678443401 0.0066552380 0.0643757999 0.0115171989 0.0515515909 0.4786585852 0.0647703911 -0.0001754627 0.0713190620 0.0511230735 0.0016444372 0.0689789461 0.0798471130 0.0009500345 0.0777139816 0.0291123452 0.0032111232 0.1354144498 0.0143800736 0.0051593821 0.1513639232 0.0221293694 0.0081909956 0.2949979002 0.0057091449 -0.0011203251 0.3069700878 0.0285116649 0.0004853295 0.3926130829 0.0267401203 -0.0000735275 0.0333893377 0.0228930751 0.0190696934 0.1264761984 0.0253986224 -0.0004935569 0.4799105319 0.0502016466 0.0071983699 0.4981303751 0.0781895749 0.0007423429 0.3255641342 0.0664093473 0.0048553221 0.4854304728 0.0683458315 0.0149432985 0.3876479052 0.0704152361 0.0069120213 0.1319493997 0.0640523754 0.0157534474 0.1202186303 0.0589437983 0.0189052492 0.0822027902 0.0305857139 0.0134269006 0.1569144202 0.0695166950 0.0028227944 0.0991571390 0.0494685234 0.0502987107 0.4498325502 0.0758877877 0.2058950385 0.0702044096 0.0466704347 -0.0001478265 0.0661699275 0.0760830557 0.0103097301 0.0935854156 0.0506977367 0.0003117203 0.1155504849 0.0064338721 0.0022406232 0.0736362875 0.0226622333 0.0262256254 0.2618196372 0.0243856166 -0.0001844297 0.3154371385 0.0225353387 0.0006980878 0.1632674414 0.0232326168 0.0058049112 0.4160926445 0.0232948825 -0.0006238216 0.2749650231 0.0414409660 0.0036599831 0.4777150548 0.0359487645 0.0210469236 0.4345668394 0.0
[...]
      <PointData Scalars="smoothLength">
        <DataArray type="Float32" Name="smoothLength" format="ascii">
 0.0065000000 0.0065000000 0.0065000000 0.0065000000 0.0065000000 0.0065000000 0.0065000000 0.0065000000 0.0065000000 0.0065000000 0.0065000000 0.0065000000 0.0065000000 0.0065000000 0.0065000000 0.0065000000 0.0065000000 0.0065000000 0.0065000000 0.0065000000 0.0065000000 0.0065000000 0.0065000000 0.0065000000 0.0065000000 0.0065000000 0.0065000000 0.0065000000 0.0065000000 0.0065000000 0.0065000000 0.0065000000 0.0065000000 0.0065000000 0.0065000000 0.0065000000 0.0065000000 0.0065000000 0.0065000000 0.0065000000 0.0065000000 0.0065000000 0.0065000000 0.0065000000 0.0065000000 0.0065000000 0.0065000000 0.0065000000 0.0065000000 0.0065000000 0.0065000000 0.0065000000 0.0065000000 0.0065000000 0.0065000000 0.0065000000 0.0065000000 0.0065000000 0.0065000000 0.0065000000 0.0065000000 0.0065000000 0.0065000000 0.0065000000 0.0065000000 0.0065000000 0.0065000000 0.0065000000 0.0065000000 0.0065000000 0.0065000000 0.0065000000 0.0065000000 0.0065000000 0.0065000000 0.0065000000 0.0065000000 0.0065000000 0.0065000000 0.0065000000 0.0065000000 0.0065000000 0.0065000000 0.0065000000 0.0065000000 0.0065000000 0.0065000000 0.0065000000 0.0065000000 0.0065000000 0.0065000000 0.0065000000 0.0065000000 0.0065000000 0.0065000000 0.0065000000 0.0065000000 0.0065000000 0.0065000000 0.0065000000 0.0065000000 0.0065000000 0.0065000000 0.0065000000 0.0065000000 0.0065000000 0.0065000000 0.0065000000 0.0065000000 0.0065000000 0.0065000000 0.0065000000 0.0065000000 0.0065000000 0.0065000000 0.0065000000 0.0065000000 0.0065000000 0.0065000000 0.0065000000 0.0065000000 0.0065000000 0.0065000000 0.0065000000 0.0065000000 0.0065000000 0.0065000000 0.0065000000 0.0065000000 0.0065000000 0.0065000000 0.0065000000 0.0065000000 0.0065000000 0.0065000000 0.0065000000 0.0065000000 0.0065000000 0.0065000000 0.0065000000 0.0065000000 0.0065000000 0.0065000000 0.0065000000 0.0065000000 0.0065000000 0.0065000000 0.0065000000 0.0065000000 0.0065000000 0.0065000000 0.0065000000 0.0065000000 0.0065000000 0.0065000000 0.0065000000 0.0065000000 0.0065000000 0.0065000000 0.0065000000 0.0065000000 0.0065000000 0.0065000000 0.0065000000 0.0065000000 0.0065000000 0.0065000000 0.0065000000 0.0065000000 0.0065000000 0.0065000000 0.0065000000 0.0065000000 0.0065000000 0.0065000000 0.0065000000 0.0065000000 0.0065000000 0.0065000000 0.0065000000 0.0065000000 0.0065000000 0.0065000000 0.0065000000 0.0065000000 0.0065000000 0.0065000000 0.0065000000 0.0065000000 0.0065000000 0.0065000000 0.0065000000 0.0065000000 0.0065000000 0.0065000000 0.0065000000 0.0065000000 0.0065000000 0.0065000000 0.0065000000 0.0065000000 0.0065000000 0.0065000000 0.0065000000 0.0065000000 0.0065000000 0.0065000000 0.0065000000 0.0065000000 0.0065000000 0.0065000000 0.0065000000 0.0065000000 0.0065000000 0.0065000000 0.0065000000 0.0065000000 0.0065000000 0.0065000000 0.0065000000 0.0065000000 0.0065000000 0.0065000000 0.0065000000 0.0065000000 0.0065000000 0.0065000000 0.0065000000 0.0065000000 0.0065000000 0.0065000000 0.0065000000 0.0065000000 0.0065000000 0.0065000000 0.0065000000 0.0065000000 0.0065000000 0.0065000000 0.0065000000 0.0065000000 0.0065000000 0.0065000000 0.0065000000 0.0065000000 0.0065000000 0.0065000000 0.0065000000 0.0065000000 0.0065000000 0.0065000000 0.0065000000 0.0065000000 0.0065000000 0.0065000000 0.0065000000 0.0065000000 0.0065000000 0.0065000000 0.0065000000 0.0065000000 0.0065000000 0.0065000000 0.0065000000 0.0065000000 0.0065000000 0.0065000000 0.0065000000 0.0065000000 0.0065000000 0.0065000000 0.0065000000 0.0065000000 0.0065000000 0.0065000000 0.0065000000 0.0065000000 0.0065000000 0.0065000000 0.0065000000 0.0065000000 0.0065000000 0.0065000000 0.0065000000 0.0065000000 0.0065000000 0.0065000000 0.0065000000 0.0065000000 0.0065000000 0.0065000000 0.0065000000 0.0065000000 0.0065000000 0.0065000000 0.0065000000 0.0065000000 0.0065000000 0.0065000000 0.0065000000 0.0065000000 0.0065000000 0.0065000000 0.0065000000 0.0065000000 0.0065000000 0.0065000000 0.0065000000 0.0065000000 0.0065000000 0.0065000000 0.0065000000 0.0065000000 0.0065000000 0.0065000000 0.0065000000 0.0065000000 0.0065000000 0.0065000000 0.0065000000 0.0065000000 0.0065000000 0.0065000000 0.0065000000 0.0065000000 0.0065000000 0.0065000000 0.0065000000 0.0065000000 0.0065000000 0.0065000000 0.0065000000 0.0065000000 0.0065000000 0.0065000000 0.0065000000 0.0065000000 0.0065000000 0.0065000000 0.0065000000 0.0065000000 0.0065000000 0.0065000000 0.0065000000 0.0065000000 0.0065000000 0.0065000000 0.0065000000 0.0065000000 0.0065000000 0.0065000000 0.0065000000 0.0065000000 0.0065000000 0.0065000000 0.0065000000 0.0065000000 0.0065000000 0.0065000000 0.0065000000 0.0065000000 0.0065000000 0.0065000000 0.0065000000 0.0065000000 0.0065000000 0.0065000000 0.0065000000 0.0065000000 0.0065000000 0.0065000000 0.0065000000 0.0065000000 0.0065000000 0.0065000000 0.0065000000 0.0065000000 0.0065000000 0.0065000000 0.0065000000 0.0065000000 0.0065000000 0.0065000000 0.0065000000 0.0065000000 0.0065000000 0.0065000000 0.0065000000 0.0065000000 0.0065000000 0.0065000000 0.0065000000 0.0065000000 0.0065000000 0.0065000000 0.0065000000 0.0065000000 0.0065000000 0.0065000000 0.0065000000 0.0065000000 0.0065000000 0.0065000000 0.0065000000 0.0065000000 0.0065000000 0.0065000000 0.0065000000 0.0065000000 0.0065000000 0.0065000000 0.0065000000 0.0065000000 0.0065000000 0.0065000000 0.0065000000 0.0065000000 0.0065000000 0.0065000000 0.0065000000 0.0065000000 0.0065000000 0.0065000000 0.0065000000 0.0065000000 0.0065000000 0.0065000000 0.0065000000 0.0065000000 0.0065000000 0.0065000000 0.0065000000 0.0065000000 0.0065000000 0.0065000000 0.0065000000 0.0065000000 0.0065000000 0.0065000000 0.0065000000 0.0065000000 0.0065000000 0.0065000000 0.0065000000 0.0065000000 0.0065000000 0.0065000000 0.0065000000 0.0065000000 0.0065000000 0.0065000000 0.0065000000 0.0065000000 0.0065000000 0.0065000000 0.0065000000 0.0065000000 0.0065000000 0.0065000000 0.0065000000 0.0065000000 0.0065000000 0.0065000000 0.0065000000 0.0065000000 0.0065000000 0.0065000000 0.0065000000 0.0065000000 0.0065000000 0.0065000000 0.0065000000 0.0065000000 0.0065000000 0.0065000000 0.0065000000 0.0065000000 0.0065000000 0.0065000000 0.0065000000 0.0065000000 0.0065000000 0.0065000000 0.0065000000 0.0065000000 0.0065000000 0.0065000000 0.0065000000 0.0065000000 0.0065000000 0.0065000000 0.0065000000 0.0065000000 0.0065000000 0.0065000000 0.0065000000 0.0065000000 0.0065000000 0.0065000000 0.0065000000 0.0065000000 0.0065000000 0.0065000000 0.0065000000 0.0065000000 0.0065000000 0.0065000000 0.0065000000 0.0065000000 0.0065000000 0.0065000000 0.0065000000 0.0065000000 0.0065000000 0.0065000000 0.0065000000 0.0065000000 0.0065000000 0.0065000000 0.0065000000 0.0065000000 0.0065000000 0.0065000000 0.0065000000 0.0065000000 0.0065000000 0.0065000000 0.0065000000 0.0065000000 0.0065000000 0.0065000000 0.0065000000 0.0065000000 0.0065000000 0.0065000000 0.0065000000 0.0065000000 0.0065000000 0.0065000000 0.0065000000 0.0065000000 0.0065000000 0.0065000000 0.0065000000 0.0065000000 0.0065000000 0.0065000000 0.0065000000 0.0065000000 0.0065000000 0.0065000000 0.0065000000 0.0065000000 0.0065000000 0.0065000000 0.0065000000 0.0065000000 0.0065000000 0.0065000000 0.0065000000 0.0065000000 0.0065000000 0.0065000000 0.0065000000 0.0065000000 0.0065000000 0.0065000000 0.0065000000 0.0065000000 0.0065000000 0.0065000000 0.0065000000 0.0065000000 0.0065000000 0.0065000000 0.0065000000 0.0065000000 0.0065000000 0.0065000000 0.0065000000 0.0065000000 0.0065000000 0.0065000000 0.0065000000 0.0065000000 0.0065000000 0.0065000000 0.0065000000 0.0065000000 0.0065000000 0.0065000000 0.0065000000 0.0065000000 0.0065000000 0.0065000000 0.0065000000 0.0065000000 0.0065000000 0.0065000000 0.0065000000 0.0065000000 0.0065000000 0.0065000000 0.0065000000 0.0065000000 0.0065000000 0.0065000000 0.0065000000 0.0065000000 0.0065000000 0.0065000000 0.0065000000 0.0065000000 0.0065000000 0.0065000000 0.0065000000 0.0065000000 0.0065000000 0.0065000000 0.0065000000 0.0065000000 0.0065000000 0.0065000000 0.0065000000 0.0065000000 0.0065000000 0.0065000000 0.0065000000 0.0065000000 0.0065000000 0.0065000000 0.0065000000 0.0065000000 0.0065000000 0.0065000000 0.0065000000 0.0065000000 0.0065000000 0.0065000000 0.0065000000 0.0065000000 0.0065000000 0.0065000000 0.0065000000 0.0065000000 0.0065000000 0.0065000000 0.0065000000 0.0065000000 0.0065000000 0.0065000000 0.0065000000 0.0065000000 0.0065000000 0.0065000000 0.0065000000 0.0065000000 0.0065000000 0.0065000000 0.0065000000 0.0065000000 0.0065000000 0.0065000000 0.0065000000 0.0065000000 0.0065000000 0.0065000000 0.0065000000 0.0065000000 0.0065000000 0.0065000000 0.0065000000 0.0065000000 0.0065000000 0.0065000000 0.0065000000 0.0065000000 0.0065000000 0.0065000000 0.0065000000 0.0065000000 0.0065000000 0.0065000000 0.0065000000 0.0065000000 0.0065000000 0.0065000000 0.0065000000 0.0065000000 0.0065000000 0.0065000000 0.0065000000 0.0065000000 0.0065000000 0.0065000000 0.0065000000 0.0065000000 0.0065000000 0.0065000000 0.0065000000 0.0065000000 0.0065000000 0.0065000000 0.0065000000 0.0065000000 0.0065000000 0.0065000000 0.0065000000 0.0065000000 0.0065000000 0.0065000000 0.0065000000 0.0065000000 0.0065000000 0.0065000000 0.0065000000 0.0065000000 0.0065000000 0.0065000000 0.0065000000 0.0065000000 0.0065000000 0.0065000000 0.0065000000 0.0065000000 0.0065000000 0.0065000000 0.0065000000 0.0065000000 0.0065000000 0.0065000000 0.0065000000 0.0065000000 0.0065000000 0.0065000000 0.0065000000 0.0065000000 0.0065000000 0.0065000000 0.0065000000 0.0065000000 0.0065000000 0.0065000000 0.0065000000 0.0065000000 0.0065000000 0.0065000000 0.0065000000 0.0065000000 0.0065000000 0.0065000000 0.0065000000 0.0065000000 0.0065000000 0.0065000000 0.0065000000 0.0065000000 0.0065000000 0.0065000000 0.0065000000 0.0065000000 0.0065000000 0.0065000000 0.0065000000 0.0065000000 0.0065000000 0.0065000000 0.0065000000 0.0065000000 0.0065000000 0.0065000000 0.0065000000 0.0065000000 0.0065000000 0.0065000000 0.0065000000 0.0065000000 0.0065000000 0.0065000000 0.0065000000 0.0065000000 0.0065000000 0.0065000000 0.0065000000 0.0065000000 0.0065000000 0.0065000000 0.0065000000 0.0065000000 0.0065000000 0.0065000000 0.0065000000 0.0065000000 0.0065000000 0.0065000000 0.0065000000 0.0065000000 0.0065000000 0.0065000000 0.0065000000 0.0065000000 0.0065000000 0.0065000000 0.0065000000 0.0065000000 0.0065000000 0.0065000000 0.0065000000 0.0065000000 0.0065000000 0.0065000000 0.0065000000 0.0065000000 0.0065000000 0.0065000000 0.0065000000 0.0065000000 0.0065000000 0.0065000000 0.0065000000 0.0065000000 0.0065000000 0.0065000000 0.0065000000 0.0065000000 0.0065000000 0.0065000000 0.0065000000 0.0065000000 0.0065000000 0.0065000000 0.0065000000 0.0065000000 0.0065000000 0.0065000000 0.0065000000 0.0065000000 0.0065000000 0.0065000000 0.0065000000 0.0065000000 0.0065000000 0.0065000000 0.0065000000 0.0065000000 0.0065000000 0.0065000000 0.0065000000 0.0065000000 0.0065000000 0.0065000000 0.0065000000 0.0065000000 0.0065000000 0.0065000000 0.0065000000 0.0065000000 0.0065000000 0.0065000000 0.0065000000 0.0065000000 0.0065000000 0.0065000000 0.0065000000 0.0065000000 0.0065000000 0.0065000000 0.0065000000 0.0065000000 0.0065000000 0.0065000000 0.0065000000 0.0065000000 0.0065000000 0.0065000000 0.0065000000 0.0065000000 0.0065000000 0.0065000000 0.0065000000 0.0065000000 0.0065000000 0.0065000000 0.0065000000 0.0065000000 0.0065000000 0.0065000000 0.0065000000 0.0065000000 0.0065000000 0.0065000000 0.0065000000 0.0065000000 0.0065000000 0.0065000000 0.0065000000 0.0065000000 0.0065000000 0.0065000000 0.0065000000 0.0065000000 0.0065000000 0.0065000000 0.0065000000 0.0065000000 0.0065000000 0.0065000000 0.0065000000 0.0065000000 0.0065000000 0.0065000000 0.0065000000 0.0065000000 0.0065000000 0.0065000000 0.0065000000 0.0065000000 0.0065000000 0.0065000000 0.0065000000 0.0065000000 0.0065000000 0.0065000000 0.0065000000 0.0065000000 0.0065000000 0.0065000000 0.0065000000 0.0065000000 0.0065000000 0.0065000000 0.0065000000 0.0065000000 0.0065000000 0.0065000000 0.0065000000 0.0065000000 0.0065000000 0.0065000000 0.0065000000 0.0065000000 0.0065000000 0.0065000000 0.0065000000 0.0065000000 0.0065000000 0.0065000000 0.0065000000 0.0065000000 0.0065000000 0.0065000000 0.0065000000 0.0065000000 0.0065000000 0.0065000000 0.0065000000 0.0065000000 0.0065000000 0.0065000000 0.0065000000 0.0065000000 0.0065000000 0.0065000000 0.0065000000 0.0065000000 0.0065000000 0.0065000000 0.0065000000 0.0065000000 0.0065000000 0.0065000000 0.0065000000 0.0065000000 0.0065000000 0.0065000000 0.0065000000 0.0065000000 0.0065000000 0.0065000000 0.0065000000 0.0065000000 0.0065000000 0.0065000000 0.0065000000 0.0065000000 0.0065000000 0.0065000000 0.0065000000 0.0065000000 0.0065000000 0.0065000000 0.0065000000 0.0065000000 0.0065000000 0.0065000000 0.0065000000 0.0065000000 0.0065000000 0.0065000000 0.0065000000 0.0065000000 0.0065000000 0.0065000000 0.0065000000 0.0065000000 0.0065000000 0.0065000000 0.0065000000 0.0065000000 0.0065000000 0.0065000000 0.0065000000 0.0065000000 0.0065000000 0.0065000000 0.0065000000 0.0065000000 0.0065000000 0.0065000000 0.0065000000 0.0065000000 0.0065000000 0.0065000000 0.0065000000 0.0065000000 0.0065000000 0.0065000000 0.0065000000 0.0065000000 0.0065000000 0.0065000000 0.0065000000 0.0065000000 0.0065000000 0.0065000000 0.0065000000 0.0065000000 0.0065000000 0.0065000000 0.0065000000 0.0065000000 0.0065000000 0.0065000000 0.0065000000 0.0065000000 0.0065000000 0.0065000000 0.0065000000 0.0065000000 0.0065000000 0.0065000000 0.0065000000 0.0065000000 0.0065000000 0.0065000000 0.0065000000 0.0065000000 0.0065000000 0.0065000000 0.0065000000 0.0065000000 0.0065000000 0.0065000000 0.0065000000 0.0065000000 0.0065000000 0.0065000000 0.0065000000 0.0065000000 0.0065000000 0.0065000000 0.0065000000 0.0065000000 0.0065000000 0.0065000000 0.0065000000 0.0065000000 0.0065000000 0.0065000000 0.0065000000 0.0065000000 0.0065000000 0.0065000000 0.0065000000 0.0065000000 0.0065000000 0.0065000000 0.0065000000 0.0065000000 0.0065000000 0.0065000000 0.0065000000 0.0065000000 0.0065000000 0.0065000000 0.0065000000 0.0065000000 0.0065000000 0.0065000000 0.0065000000 0.0065000000 0.0065000000 0.0065000000 0.0065000000 0.0065000000 0.0065000000 0.0065000000 0.0065000000 0.0065000000 0.0065000000 0.0065000000 0.0065000000 0.0065000000 0.0065000000 0.0065000000 0.0065000000 0.0065000000 0.0065000000 0.0065000000 0.0065000000 0.0065000000 0.0065000000 0.0065000000 0.0065000000 0.0065000000 0.0065000000 0.0065000000 0.0065000000 0.0065000000 0.0065000000 0.0065000000 0.0065000000 0.0065000000 0.0065000000 0.0065000000 0.0065000000 0.0065000000 0.0065000000 0.0065000000 0.0065000000 0.0065000000 0.0065000000 0.0065000000 0.0065000000 0.0065000000 0.0065000000 0.0065000000 0.0065000000 0.0065000000 0.0065000000 0.0065000000 0.0065000000 0.0065000000 0.0065000000 0.0065000000 0.0065000000 0.0065000000 0.0065000000 0.0065000000 0.0065000000 0.0065000000 0.0065000000 0.0065000000 0.0065000000 0.0065000000 0.0065000000 0.0065000000 0.0065000000 0.0065000000 0.0065000000 0.0065000000 0.0065000000 0.0065000000 0.0065000000 0.0065000000 0.0065000000 0.0065000000 0.0065000000 0.0065000000 0.0065000000 0.0065000000 0.0065000000 0.0065000000 0.0065000000 0.0065000000 0.0065000000 0.0065000000 0.0065000000 0.0065000000 0.0065000000 0.0065000000 0.0065000000 0.0065000000 0.0065000000 0.0065000000 0.0065000000 0.0065000000 0.0065000000 0.0065000000 0.0065000000 0.0065000000 0.0065000000 0.0065000000 0.0065000000 0.0065000000 0.0065000000 0.0065000000 0.0065000000 0.0065000000 0.0065000000 0.0065000000 0.0065000000 0.0065000000 0.0065000000 0.0065000000 0.0065000000 0.0065000000 0.0065000000 0.0065000000 0.0065000000 0.0065000000 0.0065000000 0.0065000000 0.0065000000 0.0065000000 0.0065000000 0.0065000000 0.0065000000 0.0065000000 0.0065000000 0.0065000000 0.0065000000 0.0065000000 0.0065000000 0.0065000000 0.0065000000 0.0065000000 0.0065000000 0.0065000000 0.0065000000 0.0065000000 0.0065000000 0.0065000000 0.0065000000 0.0065000000 0.0065000000 0.0065000000 0.0065000000 0.0065000000 0.0065000000 0.0065000000 0.0065000000 0.0065000000 0.0065000000 0.0065000000 0.0065000000 0.0065000000 0.0065000000 0.0065000000 0.0065000000 0.0065000000 0.0065000000 0.0065000000 0.0065000000 0.0065000000 0.0065000000 0.0065000000 0.0065000000 0.0065000000 0.0065000000 0.0065000000 0.0065000000 0.0065000000 0.0065000000 0.0065000000 0.0065000000 0.0065000000 0.0065000000 0.0065000000 0.0065000000 0.0065000000 0.0065000000 0.0065000000 0.0065000000 0.0065000000 0.0065000000 0.0065000000 0.0065000000 0.0065000000 0.0065000000 0.0065000000 0.0065000000 0.0065000000 0.0065000000 0.0065000000 0.0065000000 0.0065000000 0.0065000000 0.0065000000 0.0065000000 0.0065000000 0.0065000000 0.0065000000 0.0065000000 0.0065000000 0.0065000000 0.0065000000 0.0065000000 0.0065000000 0.0065000000 0.0065000000 0.0065000000 0.0065000000 0.0065000000 0.0065000000 0.0065000000 0.0065000000 0.0065000000 0.0065000000 0.0065000000 0.0065000000 0.0065000000 0.0065000000 0.0065000000 0.0065000000 0.0065000000 0.0065000000 0.0065000000 0.0065000000 0.0065000000 0.0065000000 0.0065000000 0.0065000000 0.0065000000 0.0065000000 0.0065000000 0.0065000000 0.0065000000 0.0065000000 0.0065000000 0.0065000000 0.0065000000 0.0065000000 0.0065000000 0.0065000000 0.0065000000 0.0065000000 0.0065000000 0.0065000000 0.0065000000 0.0065000000 0.0065000000 0.0065000000 0.0065000000 0.0065000000 0.0065000000 0.0065000000 0.0065000000 0.0065000000 0.0065000000 0.0065000000 0.0065000000 0.0065000000 0.0065000000 0.0065000000 0.0065000000 0.0065000000 0.0065000000 0.0065000000 0.0065000000 0.0065000000 0.0065000000 0.0065000000 0.0065000000 0.0065000000 0.0065000000 0.0065000000 0.0065000000 0.0065000000 0.0065000000 0.0065000000 0.0065000000 0.0065000000 0.0065000000 0.0065000000 0.0065000000 0.0065000000 0.0065000000 0.0065000000 0.0065000000 0.0065000000 0.0065000000 0.0065000000 0.0065000000 0.0065000000 0.0065000000 0.0065000000 0.0065000000 0.0065000000 0.0065000000 0.0065000000 0.0065000000 0.0065000000 0.0065000000 0.0065000000 0.0065000000 0.0065000000 0.0065000000 0.0065000000 0.0065000000 0.0065000000 0.0065000000 0.0065000000 0.0065000000 0.0065000000 0.0065000000 0.0065000000 0.0065000000 0.0065000000 0.0065000000 0.0065000000 0.0065000000 0.0065000000 0.0065000000 0.0065000000 0.0065000000 0.0065000000 0.0065000000 0.0065000000 0.0065000000 0.0065000000 0.0065000000 0.0065000000 0.0065000000 0.0065000000 0.0065000000 0.0065000000 0.0065000000 0.0065000000 0.0065000000 0.0065000000 0.0065000000 0.0065000000 0.0065000000 0.0065000000 0.0065000000 0.0065000000 0.0065000000 0.0065000000 0.0065000000 0.0065000000 0.0065000000 0.0065000000 0.0065000000 0.0065000000 0.0065000000 0.0065000000 0.0065000000 0.0065000000 0.0065000000 0.0065000000 0.0065000000 0.0065000000 0.0065000000 0.0065000000 0.0065000000 0.0065000000 0.0065000000 0.0065000000 0.0065000000 0.0065000000 0.0065000000 0.0065000000 0.0065000000 0.0065000000 0.0065000000 0.0065000000 0.0065000000 0.0065000000 0.0065000000 0.0065000000 0.0065000000 0.0065000000 0.0065000000 0.0065000000 0.0065000000 0.0065000000 0.0065000000 0.0065000000 0.0065000000 0.0065000000 0.0065000000 0.0065000000 0.0065000000 0.0065000000 0.0065000000 0.0065000000 0.0065000000 0.0065000000 0.0065000000 0.0065000000 0.0065000000 0.0065000000 0.0065000000 0.0065000000 0.0065000000 0.0065000000 0.0065000000 0.0065000000 0.0065000000 0.0065000000 0.0065000000 0.0065000000 0.0065000000 0.0065000000 0.0065000000 0.0065000000 0.0065000000 0.0065000000 0.0065000000 0.0065000000 0.0065000000 0.0065000000 0.0065000000 0.0065000000 0.0065000000 0.0065000000 0.0065000000 0.0065000000 0.006500000