<?xml version="1.0"?>
<VTKFile type="UnstructuredGrid" version="0.1" byte_order="LittleEndian">
  <UnstructuredGrid>
    <FieldData>
      <DataArray type="Float32" Name="TIME"  NumberOfTuples="1" format="ascii"> 0.1998623432 </DataArray>
      <DataArray type="Int32"   Name="STEP"  NumberOfTuples="1" format="ascii"> 2680 </DataArray>
    </FieldData>
    <Piece NumberOfPoints="18081" NumberOfCells="18081">
      <Points>
        <DataArray type="Float32" NumberOfComponents="3" format="ascii">
 0.0024811679 0.0003404948 -0.0006310406 0.0079165023 -0.0006528013 0.0000606082 0.0142837934 0.0002508180 -0.0008713701 0.0234213671 0.0000241436 -0.0005340085 0.0315309178 0.0001715185 -0.0004752604 0.0406507992 0.0003988722 -0.0004129786 0.0502158511 0.0004221304 -0.0004767294 0.0600026615 0.0002850789 -0.0005671544 0.0700020511 0.0001314492 -0.0006639221 0.0813123088 0.0004313238 -0.0008803210 0.0941233117 0.0005260000 -0.0010771980 0.1074683558 0.0006239141 -0.0010835610 0.1218747381 0.0001202766 -0.0010727656 0.1374913959 -0.0001970487 -0.0008879877 0.1482626129 -0.0003197192 -0.0003355775 0.1668566118 -0.0001282714 -0.0007966648 0.1883909302 -0.0005672818 -0.0004836320 0.2175176729 -0.0004474865 -0.0000579121 0.2520006678 -0.0009178371 0.0002139228 0.2809328896 -0.0007090102 -0.0013176356 0.3079832126 -0.0000512320 0.0004871161 0.0050949929 0.0067735995 -0.0004076337 0.0105479533 0.0030315432 -0.0000814242 0.0197981242 0.0045983884 -0.0005219906 0.0309468308 0.0063186726 -0.0004238977 0.0409034418 0.0063969389 -0.0004598735 0.0517301516 0.0065189363 -0.0006359116 0.0621571870 0.0070278544 -0.0009590831 0.0730419408 0.0075193723 -0.0011362532 0.0840312126 0.0077700661 -0.0012374088 0.0955606433 0.0082441717 -0.0008681585 0.1091111706 0.0086737012 -0.0006172160 0.1247832609 0.0085249967 -0.0003283986 0.1442115700 0.0078395914 -0.0000612971 0.1650534014 0.0052259377 -0.0006518895 0.1858287152 0.0059477277 -0.0001931383 0.1999523598 0.0059785595 -0.0007948121 0.2250524404 0.0033312341 -0.0012630603 0.2539303012 0.0053535776 -0.0010803605 0.2707868945 0.0016612092 -0.0016667892 0.2951663989 -0.0010735713 -0.0001238826 0.3341474075 0.0000859212 0.0001479310 0.0029753113 0.0118602198 -0.0008960987 0.0102720022 0.0079630287 -0.0002001123 0.0152472527 0.0109934832 -0.0008890077 0.0243563982 0.0092358172 -0.0001526995 0.0344509880 0.0105491734 -0.0004575267 0.0445570067 0.0105430346 -0.0005631821 0.0554381753 0.0112688605 -0.0006822807 0.0667134372 0.0115423416 -0.0005807417 0.0786468256 0.0117552571 -0.0004927097 0.0912298340 0.0118428449 -0.0008522807 0.1036986575 0.0119534346 -0.0009947736 0.1186661650 0.0122617785 -0.0008368574 0.1350316674 0.0124450220 -0.0010308959 0.1515253499 0.0116609250 -0.0005423972 0.1698576872 0.0092675563 -0.0005984172 0.1948681690 0.0082187457 -0.0002745406 0.2293421648 0.0091838595 -0.0007047058 0.2572116087 0.0101232203 -0.0007269690 0.2818029610 0.0060876923 -0.0015458089 0.3044690172 0.0033833608 -0.0014250881 0.3307909181 0.0050485312 -0.0004763350 0.0063136801 0.0169619857 0.0003976247 0.0093893328 0.0130587962 -0.0005483418 0.0162877939 0.0161412200 -0.0002479538 0.0279175767 0.0156295117 -0.0007289050 0.0408344404 0.0154619616 -0.0007652671 0.0514797042 0.0155214110 -0.0007479123 0.0622555445 0.0153077808 -0.0007795776 0.0737157410 0.0150311766 -0.0009818025 0.0858367080 0.0147493722 -0.0007553020 0.0981388429 0.0150495398 -0.0005193508 0.1121356892 0.0147203520 -0.0009274907 0.1272931989 0.0136628976 -0.0009552835 0.1434854748 0.0128034439 -0.0008352345 0.1570688557 0.0123655127 -0.0012673294 0.1796570198 0.0125463251 -0.0005407259 0.1985706030 0.0130517919 -0.0002283299 0.2230890731 0.0137984547 -0.0004732774 0.2526946550 0.0145996283 -0.0010199519 0.2733714173 0.0104988744 -0.0004723372 0.3088513735 0.0094636474 -0.0011642166 0.3334708131 0.0101271707 -0.0001295792 0.0071961846 0.0215385218 -0.0003315019 0.0115035086 0.0182520218 -0.0002281585 0.0183674080 0.0206955483 -0.0002729058 0.0280153277 0.0210200699 -0.0001904726 0.0370437026 0.0204212113 -0.0004211012 0.0469599841 0.0197442221 -0.0007439062 0.0577493357 0.0196123168 -0.0008763693 0.0691667259 0.0196326401 -0.0009519374 0.0814019935 0.0193813829 -0.0010175992 0.0946874014 0.0194423950 -0.0010028852 0.1071670670 0.0189698891 -0.0007829054 0.1225599448 0.0179875040 -0.0008763626 0.1388462428 0.0183777416 -0.0009345072 0.1546558720 0.0192469608 -0.0010483753 0.1748350667 0.0182597810 -0.0013443696 0.1991389808 0.0181852422 -0.0004037869 0.2253410387 0.0191457813 0.0001165671 0.2575470901 0.0195126343 -0.0010478269 0.2809909516 0.0168874908 -0.0013290196 0.3100177435 0.0171340136 -0.0011950653 0.3333270699 0.0160617202 0.0000391838 0.0063567496 0.0264682822 -0.0004925611 0.0117437768 0.0238068404 -0.0000141642 0.0168383460 0.0259616157 -0.0006766942 0.0278997391 0.0260820858 -0.0002349072 0.0391918936 0.0251996648 -0.0004574910 0.0480575168 0.0248953504 -0.0005724434 0.0578957220 0.0248146005 -0.0005162649 0.0683979901 0.0246906084 -0.0005988180 0.0791810171 0.0246193804 -0.0008234996 0.0905370047 0.0246498763 -0.0011724799 0.1037271952 0.0245977271 -0.0009535275 0.1192130526 0.0244191187 -0.0007495858 0.1338365363 0.0238816208 -0.0006808893 0.1517811347 0.0244168205 -0.0009947993 0.1727019558 0.0239803616 -0.0006176275 0.1984659559 0.0242116028 -0.0002789794 0.2287385375 0.0253701785 -0.0011763374 0.2541021129 0.0240492260 -0.0010076795 0.2777450717 0.0229842123 -0.0012307671 0.3106816819 0.0223541472 -0.0007083648 0.3337567690 0.0212656830 -0.0004061171 0.0072069839 0.0306151497 0.0006715848 0.0124675260 0.0290385581 -0.0002127385 0.0177267041 0.0309788228 -0.0001871850 0.0284662544 0.0307793525 -0.0002298060 0.0386789133 0.0302666569 -0.0003058032 0.0487084203 0.0298998048 -0.0004981646 0.0589239180 0.0298695775 -0.0005442769 0.0699607998 0.0296349286 -0.0007657691 0.0823724935 0.0295228586 -0.0009344133 0.0952684631 0.0294665813 -0.0010466432 0.1071081032 0.0293185421 -0.0010002472 0.1216085904 0.0292533886 -0.0010349435 0.1366442889 0.0291337972 -0.0010054830 0.1527690652 0.0294505101 -0.0009582824 0.1755855012 0.0288573937 -0.0011951323 0.1990863778 0.0286930511 0.0000977001 0.2233863701 0.0289091097 0.0004186044 0.2556036325 0.0292731924 -0.0011340429 0.2791128576 0.0276233963 -0.0010348257 0.3102343617 0.0279543113 -0.0009367344 0.3325232886 0.0272359571 -0.0000797816 0.0065859829 0.0346712136 -0.0004425357 0.0117504833 0.0340905346 -0.0001016939 0.0167255429 0.0357249209 -0.0002955905 0.0279919452 0.0353472893 -0.0001853610 0.0384456349 0.0351604564 -0.0002245274 0.0479238737 0.0349178341 -0.0004878738 0.0581167869 0.0349661664 -0.0005498901 0.0687806137 0.0348437858 -0.0007437853 0.0805578099 0.0346630851 -0.0007488537 0.0927519769 0.0345166977 -0.0010069495 0.1047235545 0.0344819687 -0.0009437965 0.1203700525 0.0346568115 -0.0008596730 0.1348905976 0.0345866978 -0.0007343465 0.1525320577 0.0346686949 -0.0010785241 0.1739505789 0.0345847048 -0.0010006329 0.1987486554 0.0342355747 -0.0002907910 0.2250508762 0.0339814102 -0.0009519328 0.2550573828 0.0343361499 -0.0009536012 0.2788125274 0.0336231928 -0.0013050960 0.3105135839 0.0332807776 -0.0006827031 0.3330753583 0.0325401488 -0.0003467373 0.0066508301 0.0390125991 -0.0000440669 0.0117104883 0.0394571474 0.0000163013 0.0169580487 0.0404003948 -0.0002091887 0.0281568206 0.0400290569 -0.0002071401 0.0386481111 0.0400103065 -0.0002737345 0.0482193877 0.0398407784 -0.0005740624 0.0584480052 0.0399158299 -0.0005743208 0.0692899789 0.0398253068 -0.0007153755 0.0814822294 0.0397224293 -0.0007210150 0.0936998740 0.0396848248 -0.0009831994 0.1057519415 0.0396159327 -0.0009397815 0.1204324597 0.0397236246 -0.0009421525 0.1353174348 0.0397368170 -0.0007937021 0.1523652148 0.0396087150 -0.0010829823 0.1741876026 0.0396080957 -0.0009012947 0.1987704590 0.0391097392 0.0001278022 0.2250685320 0.0392921522 -0.0001986249 0.2550162921 0.0392673719 -0.0009895295 0.2784867315 0.0386838002 -0.0010800669 0.3102727572 0.0385699894 -0.0006924409 0.3326355551 0.0380629972 -0.0001733829 0.0065690986 0.0436331689 -0.0003376715 0.0114678809 0.0444569462 0.0000514305 0.0165754219 0.0451148734 -0.0003180844 0.0280395410 0.0448206414 -0.0002736628 0.0384633434 0.0449000274 -0.0002712513 0.0480914690 0.0447458185 -0.0004940877 0.0582446017 0.0448107677 -0.0005156203 0.0689590571 0.0448007421 -0.0006992526 0.0807275436 0.0447208167 -0.0006737427 0.0931908986 0.0446743299 -0.0009202817 0.1050847768 0.0446281441 -0.0009037276 0.1202813998 0.0447463509 -0.0009064923 0.1351615940 0.0447847159 -0.0006721984 0.1523075078 0.0445556877 -0.0010355921 0.1742664468 0.0446081836 -0.0008974665 0.1987801821 0.0442740478 -0.0000937111 0.2244756619 0.0444348144 -0.0002909574 0.2550071647 0.0443444772 -0.0010151730 0.2787144597 0.0438900214 -0.0011543652 0.3103659104 0.0438544384 -0.0005354352 0.3329367905 0.0434740864 -0.0003080847 0.0065407031 0.0484924601 -0.0003769548 0.0114173782 0.0495655807 0.0001144657 0.0165940472 0.0498041057 -0.0003028142 0.0280616805 0.0496782542 -0.0002726116 0.0384909419 0.0497911293 -0.0002816762 0.0481164819 0.0497172055 -0.0005518313 0.0583362348 0.0497670987 -0.0005768667 0.0690780409 0.0497549268 -0.0007146852 0.0811427547 0.0497151413 -0.0006658119 0.0935412851 0.0496841664 -0.0009200381 0.1053607610 0.0496512045 -0.0009311069 0.1203335527 0.0496914989 -0.0009084602 0.1352074135 0.0497322271 -0.0006958061 0.1522628715 0.0495547490 -0.0010890868 0.1741746060 0.0496274085 -0.0009039670 0.1986079091 0.0492968711 -0.0000229470 0.2250679926 0.0493119973 -0.0003540112 0.2549485376 0.0493250595 -0.0009973243 0.2785604782 0.0491032205 -0.0011273703 0.3103362125 0.0490462090 -0.0005539847 0.3329087793 0.0487898950 -0.0002447138 0.0064906023 0.0534607895 -0.0004393060 0.0113848758 0.0545967085 0.0000995780 0.0164418657 0.0546219019 -0.0003737847 0.0280363579 0.0546154141 -0.0003047262 0.0384603146 0.0547481305 -0.0003026454 0.0481022131 0.0546775810 -0.0005442991 0.0583035303 0.0547226552
[...]
      <PointData Scalars="smoothLength">
        <DataArray type="Float32" Name="smoothLength" format="ascii">
 0.0065000000 0.0065000000 0.0065000000 0.0065000000 0.0065000000 0.0065000000 0.0065000000 0.0065000000 0.0065000000 0.0065000000 0.0065000000 0.0065000000 0.0065000000 0.0065000000 0.0065000000 0.0065000000 0.0065000000 0.0065000000 0.0065000000 0.0065000000 0.0065000000 0.0065000000 0.0065000000 0.0065000000 0.0065000000 0.0065000000 0.0065000000 0.0065000000 0.0065000000 0.0065000000 0.0065000000 0.0065000000 0.0065000000 0.0065000000 0.0065000000 0.0065000000 0.0065000000 0.0065000000 0.0065000000 0.0065000000 0.0065000000 0.0065000000 0.0065000000 0.0065000000 0.0065000000 0.0065000000 0.0065000000 0.0065000000 0.0065000000 0.0065000000 0.0065000000 0.0065000000 0.0065000000 0.0065000000 0.0065000000 0.0065000000 0.0065000000 0.0065000000 0.0065000000 0.0065000000 0.0065000000 0.0065000000 0.0065000000 0.0065000000 0.0065000000 0.0065000000 0.0065000000 0.0065000000 0.0065000000 0.0065000000 0.0065000000 0.0065000000 0.0065000000 0.0065000000 0.0065000000 0.0065000000 0.0065000000 0.0065000000 0.0065000000 0.0065000000 0.0065000000 0.0065000000 0.0065000000 0.0065000000 0.0065000000 0.0065000000 0.0065000000 0.0065000000 0.0065000000 0.0065000000 0.0065000000 0.0065000000 0.0065000000 0.0065000000 0.0065000000 0.0065000000 0.0065000000 0.0065000000 0.0065000000 0.0065000000 0.0065000000 0.0065000000 0.0065000000 0.0065000000 0.0065000000 0.0065000000 0.0065000000 0.0065000000 0.0065000000 0.0065000000 0.0065000000 0.0065000000 0.0065000000 0.0065000000 0.0065000000 0.0065000000 0.0065000000 0.0065000000 0.0065000000 0.0065000000 0.0065000000 0.0065000000 0.0065000000 0.0065000000 0.0065000000 0.0065000000 0.0065000000 0.0065000000 0.0065000000 0.0065000000 0.0065000000 0.0065000000 0.0065000000 0.0065000000 0.0065000000 0.0065000000 0.0065000000 0.0065000000 0.0065000000 0.0065000000 0.0065000000 0.0065000000 0.0065000000 0.0065000000 0.0065000000 0.0065000000 0.0065000000 0.0065000000 0.0065000000 0.0065000000 0.0065000000 0.0065000000 0.0065000000 0.0065000000 0.0065000000 0.0065000000 0.0065000000 0.0065000000 0.0065000000 0.0065000000 0.0065000000 0.0065000000 0.0065000000 0.0065000000 0.0065000000 0.0065000000 0.0065000000 0.0065000000 0.0065000000 0.0065000000 0.0065000000 0.0065000000 0.0065000000 0.0065000000 0.0065000000 0.0065000000 0.0065000000 0.0065000000 0.0065000000 0.0065000000 0.0065000000 0.0065000000 0.0065000000 0.0065000000 0.0065000000 0.0065000000 0.0065000000 0.0065000000 0.0065000000 0.0065000000 0.0065000000 0.0065000000 0.0065000000 0.0065000000 0.0065000000 0.0065000000 0.0065000000 0.0065000000 0.0065000000 0.0065000000 0.0065000000 0.0065000000 0.0065000000 0.0065000000 0.0065000000 0.0065000000 0.0065000000 0.0065000000 0.0065000000 0.0065000000 0.0065000000 0.0065000000 0.0065000000 0.0065000000 0.0065000000 0.0065000000 0.0065000000 0.0065000000 0.0065000000 0.0065000000 0.0065000000 0.0065000000 0.0065000000 0.0065000000 0.0065000000 0.0065000000 0.0065000000 0.0065000000 0.0065000000 0.0065000000 0.0065000000 0.0065000000 0.0065000000 0.0065000000 0.0065000000 0.0065000000 0.0065000000 0.0065000000 0.0065000000 0.0065000000 0.0065000000 0.0065000000 0.0065000000 0.0065000000 0.0065000000 0.0065000000 0.0065000000 0.0065000000 0.0065000000 0.0065000000 0.0065000000 0.0065000000 0.0065000000 0.0065000000 0.0065000000 0.0065000000 0.0065000000 0.0065000000 0.0065000000 0.0065000000 0.0065000000 0.0065000000 0.0065000000 0.0065000000 0.0065000000 0.0065000000 0.0065000000 0.0065000000 0.0065000000 0.0065000000 0.0065000000 0.0065000000 0.0065000000 0.0065000000 0.0065000000 0.0065000000 0.0065000000 0.0065000000 0.0065000000 0.0065000000 0.0065000000 0.0065000000 0.0065000000 0.0065000000 0.0065000000 0.0065000000 0.0065000000 0.0065000000 0.0065000000 0.0065000000 0.0065000000 0.0065000000 0.0065000000 0.0065000000 0.0065000000 0.0065000000 0.0065000000 0.0065000000 0.0065000000 0.0065000000 0.0065000000 0.0065000000 0.0065000000 0.0065000000 0.0065000000 0.0065000000 0.0065000000 0.0065000000 0.0065000000 0.0065000000 0.0065000000 0.0065000000 0.0065000000 0.0065000000 0.0065000000 0.0065000000 0.0065000000 0.0065000000 0.0065000000 0.0065000000 0.0065000000 0.0065000000 0.0065000000 0.0065000000 0.0065000000 0.0065000000 0.0065000000 0.0065000000 0.0065000000 0.0065000000 0.0065000000 0.0065000000 0.0065000000 0.0065000000 0.0065000000 0.0065000000 0.0065000000 0.0065000000 0.0065000000 0.0065000000 0.0065000000 0.0065000000 0.0065000000 0.0065000000 0.0065000000 0.0065000000 0.0065000000 0.0065000000 0.0065000000 0.0065000000 0.0065000000 0.0065000000 0.0065000000 0.0065000000 0.0065000000 0.0065000000 0.0065000000 0.0065000000 0.0065000000 0.0065000000 0.0065000000 0.0065000000 0.0065000000 0.0065000000 0.0065000000 0.0065000000 0.0065000000 0.0065000000 0.0065000000 0.0065000000 0.0065000000 0.0065000000 0.0065000000 0.0065000000 0.0065000000 0.0065000000 0.0065000000 0.0065000000 0.0065000000 0.0065000000 0.0065000000 0.0065000000 0.0065000000 0.0065000000 0.0065000000 0.0065000000 0.0065000000 0.0065000000 0.0065000000 0.0065000000 0.0065000000 0.0065000000 0.0065000000 0.0065000000 0.0065000000 0.0065000000 0.0065000000 0.0065000000 0.0065000000 0.0065000000 0.0065000000 0.0065000000 0.0065000000 0.0065000000 0.0065000000 0.0065000000 0.0065000000 0.0065000000 0.0065000000 0.0065000000 0.0065000000 0.0065000000 0.0065000000 0.0065000000 0.0065000000 0.0065000000 0.0065000000 0.0065000000 0.0065000000 0.0065000000 0.0065000000 0.0065000000 0.0065000000 0.0065000000 0.0065000000 0.0065000000 0.0065000000 0.0065000000 0.0065000000 0.0065000000 0.0065000000 0.0065000000 0.0065000000 0.0065000000 0.0065000000 0.0065000000 0.0065000000 0.0065000000 0.0065000000 0.0065000000 0.0065000000 0.0065000000 0.0065000000 0.0065000000 0.0065000000 0.0065000000 0.0065000000 0.0065000000 0.0065000000 0.0065000000 0.0065000000 0.0065000000 0.0065000000 0.0065000000 0.0065000000 0.0065000000 0.0065000000 0.0065000000 0.0065000000 0.0065000000 0.0065000000 0.0065000000 0.0065000000 0.0065000000 0.0065000000 0.0065000000 0.0065000000 0.0065000000 0.0065000000 0.0065000000 0.0065000000 0.0065000000 0.0065000000 0.0065000000 0.0065000000 0.0065000000 0.0065000000 0.0065000000 0.0065000000 0.0065000000 0.0065000000 0.0065000000 0.0065000000 0.0065000000 0.0065000000 0.0065000000 0.0065000000 0.0065000000 0.0065000000 0.0065000000 0.0065000000 0.0065000000 0.0065000000 0.0065000000 0.0065000000 0.0065000000 0.0065000000 0.0065000000 0.0065000000 0.0065000000 0.0065000000 0.0065000000 0.0065000000 0.0065000000 0.0065000000 0.0065000000 0.0065000000 0.0065000000 0.0065000000 0.0065000000 0.0065000000 0.0065000000 0.0065000000 0.0065000000 0.0065000000 0.0065000000 0.0065000000 0.0065000000 0.0065000000 0.0065000000 0.0065000000 0.0065000000 0.0065000000 0.0065000000 0.0065000000 0.0065000000 0.0065000000 0.0065000000 0.0065000000 0.0065000000 0.0065000000 0.0065000000 0.0065000000 0.0065000000 0.0065000000 0.0065000000 0.0065000000 0.0065000000 0.0065000000 0.0065000000 0.0065000000 0.0065000000 0.0065000000 0.0065000000 0.0065000000 0.0065000000 0.0065000000 0.0065000000 0.0065000000 0.0065000000 0.0065000000 0.0065000000 0.0065000000 0.0065000000 0.0065000000 0.0065000000 0.0065000000 0.0065000000 0.0065000000 0.0065000000 0.0065000000 0.0065000000 0.0065000000 0.0065000000 0.0065000000 0.0065000000 0.0065000000 0.0065000000 0.0065000000 0.0065000000 0.0065000000 0.0065000000 0.0065000000 0.0065000000 0.0065000000 0.0065000000 0.0065000000 0.0065000000 0.0065000000 0.0065000000 0.0065000000 0.0065000000 0.0065000000 0.0065000000 0.0065000000 0.0065000000 0.0065000000 0.0065000000 0.0065000000 0.0065000000 0.0065000000 0.0065000000 0.0065000000 0.0065000000 0.0065000000 0.0065000000 0.0065000000 0.0065000000 0.0065000000 0.0065000000 0.0065000000 0.0065000000 0.0065000000 0.0065000000 0.0065000000 0.0065000000 0.0065000000 0.0065000000 0.0065000000 0.0065000000 0.0065000000 0.0065000000 0.0065000000 0.0065000000 0.0065000000 0.0065000000 0.0065000000 0.0065000000 0.0065000000 0.0065000000 0.0065000000 0.0065000000 0.0065000000 0.0065000000 0.0065000000 0.0065000000 0.0065000000 0.0065000000 0.0065000000 0.0065000000 0.0065000000 0.0065000000 0.0065000000 0.0065000000 0.0065000000 0.0065000000 0.0065000000 0.0065000000 0.0065000000 0.0065000000 0.0065000000 0.0065000000 0.0065000000 0.0065000000 0.0065000000 0.0065000000 0.0065000000 0.0065000000 0.0065000000 0.0065000000 0.0065000000 0.0065000000 0.0065000000 0.0065000000 0.0065000000 0.0065000000 0.0065000000 0.0065000000 0.0065000000 0.0065000000 0.0065000000 0.0065000000 0.0065000000 0.0065000000 0.0065000000 0.0065000000 0.0065000000 0.0065000000 0.0065000000 0.0065000000 0.0065000000 0.0065000000 0.0065000000 0.0065000000 0.0065000000 0.0065000000 0.0065000000 0.0065000000 0.0065000000 0.0065000000 0.0065000000 0.0065000000 0.0065000000 0.0065000000 0.0065000000 0.0065000000 0.0065000000 0.0065000000 0.0065000000 0.0065000000 0.0065000000 0.0065000000 0.0065000000 0.0065000000 0.0065000000 0.0065000000 0.0065000000 0.0065000000 0.0065000000 0.0065000000 0.0065000000 0.0065000000 0.0065000000 0.0065000000 0.0065000000 0.0065000000 0.0065000000 0.0065000000 0.0065000000 0.0065000000 0.0065000000 0.0065000000 0.0065000000 0.0065000000 0.0065000000 0.0065000000 0.0065000000 0.0065000000 0.0065000000 0.0065000000 0.0065000000 0.0065000000 0.0065000000 0.0065000000 0.0065000000 0.0065000000 0.0065000000 0.0065000000 0.0065000000 0.0065000000 0.0065000000 0.0065000000 0.0065000000 0.0065000000 0.0065000000 0.0065000000 0.0065000000 0.0065000000 0.0065000000 0.0065000000 0.0065000000 0.0065000000 0.0065000000 0.0065000000 0.0065000000 0.0065000000 0.0065000000 0.0065000000 0.0065000000 0.0065000000 0.0065000000 0.0065000000 0.0065000000 0.0065000000 0.0065000000 0.0065000000 0.0065000000 0.0065000000 0.0065000000 0.0065000000 0.0065000000 0.0065000000 0.0065000000 0.0065000000 0.0065000000 0.0065000000 0.0065000000 0.0065000000 0.0065000000 0.0065000000 0.0065000000 0.0065000000 0.0065000000 0.0065000000 0.0065000000 0.0065000000 0.0065000000 0.0065000000 0.0065000000 0.0065000000 0.0065000000 0.0065000000 0.0065000000 0.0065000000 0.0065000000 0.0065000000 0.0065000000 0.0065000000 0.0065000000 0.0065000000 0.0065000000 0.0065000000 0.0065000000 0.0065000000 0.0065000000 0.0065000000 0.0065000000 0.0065000000 0.0065000000 0.0065000000 0.0065000000 0.0065000000 0.0065000000 0.0065000000 0.0065000000 0.0065000000 0.0065000000 0.0065000000 0.0065000000 0.0065000000 0.0065000000 0.0065000000 0.0065000000 0.0065000000 0.0065000000 0.0065000000 0.0065000000 0.0065000000 0.0065000000 0.0065000000 0.0065000000 0.0065000000 0.0065000000 0.0065000000 0.0065000000 0.0065000000 0.0065000000 0.0065000000 0.0065000000 0.0065000000 0.0065000000 0.0065000000 0.0065000000 0.0065000000 0.0065000000 0.0065000000 0.0065000000 0.0065000000 0.0065000000 0.0065000000 0.0065000000 0.0065000000 0.0065000000 0.0065000000 0.0065000000 0.0065000000 0.0065000000 0.0065000000 0.0065000000 0.0065000000 0.0065000000 0.0065000000 0.0065000000 0.0065000000 0.0065000000 0.0065000000 0.0065000000 0.0065000000 0.0065000000 0.0065000000 0.0065000000 0.0065000000 0.0065000000 0.0065000000 0.0065000000 0.0065000000 0.0065000000 0.0065000000 0.0065000000 0.0065000000 0.0065000000 0.0065000000 0.0065000000 0.0065000000 0.0065000000 0.0065000000 0.0065000000 0.0065000000 0.0065000000 0.0065000000 0.0065000000 0.0065000000 0.0065000000 0.0065000000 0.0065000000 0.0065000000 0.0065000000 0.0065000000 0.0065000000 0.0065000000 0.0065000000 0.0065000000 0.0065000000 0.0065000000 0.0065000000 0.0065000000 0.0065000000 0.0065000000 0.0065000000 0.0065000000 0.0065000000 0.0065000000 0.0065000000 0.0065000000 0.0065000000 0.0065000000 0.0065000000 0.0065000000 0.0065000000 0.0065000000 0.0065000000 0.0065000000 0.0065000000 0.0065000000 0.0065000000 0.0065000000 0.0065000000 0.0065000000 0.0065000000 0.0065000000 0.0065000000 0.0065000000 0.0065000000 0.0065000000 0.0065000000 0.0065000000 0.0065000000 0.0065000000 0.0065000000 0.0065000000 0.0065000000 0.0065000000 0.0065000000 0.0065000000 0.0065000000 0.0065000000 0.0065000000 0.0065000000 0.0065000000 0.0065000000 0.0065000000 0.0065000000 0.0065000000 0.0065000000 0.0065000000 0.0065000000 0.0065000000 0.0065000000 0.0065000000 0.0065000000 0.0065000000 0.0065000000 0.0065000000 0.0065000000 0.0065000000 0.0065000000 0.0065000000 0.0065000000 0.0065000000 0.0065000000 0.0065000000 0.0065000000 0.0065000000 0.0065000000 0.0065000000 0.0065000000 0.0065000000 0.0065000000 0.0065000000 0.0065000000 0.0065000000 0.0065000000 0.0065000000 0.0065000000 0.0065000000 0.0065000000 0.0065000000 0.0065000000 0.0065000000 0.0065000000 0.0065000000 0.0065000000 0.0065000000 0.0065000000 0.0065000000 0.0065000000 0.0065000000 0.0065000000 0.0065000000 0.0065000000 0.0065000000 0.0065000000 0.0065000000 0.0065000000 0.0065000000 0.0065000000 0.0065000000 0.0065000000 0.0065000000 0.0065000000 0.0065000000 0.0065000000 0.0065000000 0.0065000000 0.0065000000 0.0065000000 0.0065000000 0.0065000000 0.0065000000 0.0065000000 0.0065000000 0.0065000000 0.0065000000 0.0065000000 0.0065000000 0.0065000000 0.0065000000 0.0065000000 0.0065000000 0.0065000000 0.0065000000 0.0065000000 0.0065000000 0.0065000000 0.0065000000 0.0065000000 0.0065000000 0.0065000000 0.0065000000 0.0065000000 0.0065000000 0.0065000000 0.0065000000 0.0065000000 0.0065000000 0.0065000000 0.0065000000 0.0065000000 0.0065000000 0.0065000000 0.0065000000 0.0065000000 0.0065000000 0.0065000000 0.0065000000 0.0065000000 0.0065000000 0.0065000000 0.0065000000 0.0065000000 0.0065000000 0.0065000000 0.0065000000 0.0065000000 0.0065000000 0.0065000000 0.0065000000 0.0065000000 0.0065000000 0.0065000000 0.0065000000 0.0065000000 0.0065000000 0.0065000000 0.0065000000 0.0065000000 0.0065000000 0.0065000000 0.0065000000 0.0065000000 0.0065000000 0.0065000000 0.0065000000 0.0065000000 0.0065000000 0.0065000000 0.0065000000 0.0065000000 0.0065000000 0.0065000000 0.0065000000 0.0065000000 0.0065000000 0.0065000000 0.0065000000 0.0065000000 0.0065000000 0.0065000000 0.0065000000 0.0065000000 0.0065000000 0.0065000000 0.0065000000 0.0065000000 0.0065000000 0.0065000000 0.0065000000 0.0065000000 0.0065000000 0.0065000000 0.0065000000 0.0065000000 0.0065000000 0.0065000000 0.0065000000 0.0065000000 0.0065000000 0.0065000000 0.0065000000 0.0065000000 0.0065000000 0.0065000000 0.0065000000 0.0065000000 0.0065000000 0.0065000000 0.0065000000 0.0065000000 0.0065000000 0.0065000000 0.0065000000 0.0065000000 0.0065000000 0.0065000000 0.0065000000 0.0065000000 0.0065000000 0.0065000000 0.0065000000 0.0065000000 0.0065000000 0.0065000000 0.0065000000 0.0065000000 0.0065000000 0.0065000000 0.0065000000 0.0065000000 0.0065000000 0.0065000000 0.0065000000 0.0065000000 0.0065000000 0.0065000000 0.0065000000 0.0065000000 0.0065000000 0.0065000000 0.0065000000 0.0065000000 0.0065000000 0.0065000000 0.0065000000 0.0065000000 0.0065000000 0.0065000000 0.0065000000 0.0065000000 0.0065000000 0.0065000000 0.0065000000 0.0065000000 0.0065000000 0.0065000000 0.0065000000 0.0065000000 0.0065000000 0.0065000000 0.0065000000 0.0065000000 0.0065000000 0.0065000000 0.0065000000 0.0065000000 0.0065000000 0.0065000000 0.0065000000 0.0065000000 0.0065000000 0.0065000000 0.0065000000 0.0065000000 0.0065000000 0.0065000000 0.0065000000 0.0065000000 0.0065000000 0.0065000000 0.0065000000 0.0065000000 0.0065000000 0.0065000000 0.0065000000 0.0065000000 0.0065000000 0.0065000000 0.0065000000 0.0065000000 0.0065000000 0.0065000000 0.0065000000 0.0065000000 0.0065000000 0.0065000000 0.0065000000 0.0065000000 0.0065000000 0.0065000000 0.0065000000 0.0065000000 0.0065000000 0.0065000000 0.0065000000 0.0065000000 0.0065000000 0.0065000000 0.0065000000 0.0065000000 0.0065000000 0.0065000000 0.0065000000 0.0065000000 0.0065000000 0.0065000000 0.0065000000 0.0065000000 0.0065000000 0.0065000000 0.0065000000 0.0065000000 0.0065000000 0.0065000000 0.0065000000 0.0065000000 0.0065000000 0.0065000000 0.0065000000 0.0065000000 0.0065000000 0.0065000000 0.0065000000 0.0065000000 0.0065000000 0.0065000000 0.0065000000 0.0065000000 0.0065000000 0.0065000000 0.0065000000 0.0065000000 0.0065000000 0.0065000000 0.0065000000 0.0065000000 0.0065000000 0.0065000000 0.0065000000 0.0065000000 0.0065000000 0.0065000000 0.0065000000 0.0065000000 0.0065000000 0.0065000000 0.0065000000 0.0065000000 0.0065000000 0.0065000000 0.0065000000 0.0065000000 0.0065000000 0.0065000000 0.0065000000 0.0065000000 0.0065000000 0.0065000000 0.0065000000 0.0065000000 0.0065000000 0.0065000000 0.0065000000 0.0065000000 0.0065000000 0.0065000000 0.0065000000 0.0065000000 0.0065000000 0.0065000000 0.0065000000 0.0065000000 0.0065000000 0.0065000000 0.0065000000 0.0065000000 0.0065000000 0.0065000000 0.0065000000 0.0065000000 0.0065000000 0.0065000000 0.0065000000 0.0065000000 0.0065000000 0.0065000000 0.0065000000 0.0065000000 0.0065000000 0.0065000000 0.0065000000 0.0065000000 0.0065000000 0.0065000000 0.0065000000 0.0065000000 0.0065000000 0.0065000000 0.0065000000 0.0065000000 0.0065000000 0.0065000000 0.0065000000 0.0065000000 0.0065000000 0.0065000000 0.0065000000 0.0065000000 0.0065000000 0.0065000000 0.0065000000 0.0065000000 0.0065000000 0.0065000000 0.0065000000 0.0065000000 0.0065000000 0.0065000000 0.0065000000 0.0065000000 0.0065000000 0.0065000000 0.0065000000 0.0065000000 0.0065000000 0.0065000000 0.0065000000 0.0065000000 0.0065000000 0.0065000000 0.0065000000 0.0065000000 0.0065000000 0.0065000000 0.0065000000 0.0065000000 0.0065000000 0.0065000000 0.0065000000 0.0065000000 0.0065000000 0.0065000000 0.0065000000 0.0065000000 0.0065000000 0.0065000000 0.0065000000 0.0065000000 0.0065000000 0.0065000000 0.0065000000 0.0065000000 0.0065000000 0.0065000000 0.0065000000 0.0065000000 0.0065000000 0.0065000000 0.0065000000 0.0065000000 0.0065000000 0.0065000000 0.0065000000 0.0065000000 0.0065000000 0.0065000000 0.0065000000 0.0065000000 0.0065000000 0.0065000000 0.0065000000 0.0065000000 0.0065000000 0.0065000000 0.0065000000 0.0065000000 0.0065000000 0.0065000000 0.0065000000 0.0065000000 0.0065000000 0.0065000000 0.0065000000 0.0065000000 0.0065000000 0.0065000000 0.0065000000 0.0065000000 0.0065000000 0.0065000000 0.0065000000 0.0065000000 0.0065000000 0.0065000000 0.0065000000 0.0065000000 0.0065000000 0.0065000000 0.0065000000 0.0065000000 0.0065000000 0.0065000000 0.0065000000 0.0065000000 0.0065000000 0.0065000000 0.0065000000 0.0065000000 0.0065000000 0.0065000000 0.0065000000 0.0065000000 0.0065000000 0.0065000000 0.0065000000 0.0065000000 0.0065000000 0.0065000000 0.0065000000 0.0065000000 0.0065000000 0.0065000000 0.0065000000 0.0065000000 0.0065000000 0.0065000000 0.0065000000 0.0065000000 0.0065000000 0.0065000000 0.0065000000 0.0065000000 0.0065000000 0.0065000000 0.0065000000 0.0065000000 0.0065000000 0.0065000000 0.0065000000 0.0065000000 0.0065000000 0.0065000000 0.0065000000 0.0065000000 0.0065000000 0.0065000000 0.0065000000 0.0065000000 0.0065000000 0.0065000000 0.0065000000 0.0065000000 0.0065000000 0.0065000000 0.0065000000 0.0065000000 0.0065000000 0.0065000000 0.0065000000 0.0065000000 0.0065000000 0.0065000000 0.0065000000 0.0065000000 0.0065000000 0.0065000000 0.0065000000 0.0065000000 0.0065000000 0.0065000000 0.0065000000 0.0065000000 0.0065000000 0.0065000000 0.0065000000 0.0065000000 0.0065000000 0.0065000000 0.0065000000 0.0065000000 0.0065000000 0.0065000000 0.0065000000 0.0065000000 0.0065000000 0.0065000000 0.0065000000 0.0065000000 0.0065000000 0.0065000000 0.0065000000 0.0065000000 0.0065000000 0.0065000000 0.0065000000 0.0065000000 0.0065000000 0.0065000000 0.0065000000 0.0065000000 0.0065000000 0.0065000000 0.0065000000 0.0065000000 0.0065000000 0.0065000000 0.0065000000 0.0065000000 0.0065000000 0.0065000000 0.0065000000 0.006500000