<?xml version="1.0"?>
<VTKFile type="UnstructuredGrid" version="0.1" byte_order="LittleEndian">
  <UnstructuredGrid>
    <FieldData>
      <DataArray type="Float32" Name="TIME"  NumberOfTuples="1" format="ascii"> 2.8480383908 </DataArray>
      <DataArray type="Int32"   Name="STEP"  NumberOfTuples="1" format="ascii"> 38190 </DataArray>
    </FieldData>
    <Piece NumberOfPoints="18081" NumberOfCells="18081">
      <Points>
        <DataArray type="Float32" NumberOfComponents="3" format="ascii">
 0.0804469504 0.0897852181 0.0074488362 0.0095835152 0.0893373554 0.0004036765 0.1132021957 0.0595456284 0.0059015998 0.0876659032 0.0028073956 0.0094305973 0.1105995908 0.0277612089 0.0054925736 0.0140614999 0.0005886711 0.0137703723 0.4754548068 0.0100912580 0.0133152795 0.4113735484 0.0352990376 0.0067884192 0.4941360173 0.0009763735 0.0001448529 0.4262164279 0.0315616346 0.0081837588 0.4519710227 0.0206082030 0.0162803245 0.4990146693 0.0339426997 0.0102354728 0.4846015064 0.0087271582 0.0198508042 0.3718229160 0.0222188088 0.0195848610 0.4744214097 0.0462960283 0.0207743645 0.4186390959 0.0125379232 0.0272554585 0.4989690903 0.0217260652 0.0148584053 0.3301296115 0.0778532770 0.0252226509 0.3945462760 0.0183325683 0.0284256759 0.2170298107 0.0031757797 0.0119073933 0.4698147881 0.0029919525 0.0274487748 0.1111905530 0.0975660492 0.0001931970 0.0219329832 0.0558019860 0.0129311349 0.0863474850 0.0458339034 0.0043688417 0.0873241462 0.0435167403 0.0007506245 0.0210513568 0.0188400715 0.0046880316 0.4078906750 -0.0003079760 0.0056839074 0.4880613708 0.0009666666 0.0081691344 0.4343733134 0.0265471181 0.0047784198 0.4828888649 0.0163257137 0.0244543594 0.4774594045 0.0135907149 0.0004468870 0.4182187387 0.0615906836 0.0168516337 0.4950013847 0.0217459301 0.0214474472 0.4124076634 0.0574660839 0.0125805514 0.4904971530 0.0266596641 0.0107381280 0.3615174855 0.0264122323 0.0217710827 0.4585065501 0.0245945399 0.0087949056 0.3872541096 0.0173758819 0.0264095700 0.0813922545 0.0419918319 0.0138093065 0.0192257924 0.0232490609 0.0139852107 0.3625413917 0.0181589774 0.0141378456 0.2857668062 0.0951826329 0.0241995072 0.1471247951 0.0246206853 0.0077439467 0.0016216804 0.0852215878 -0.0001011757 0.0939373258 0.0675490283 0.0007843012 0.2134698308 0.0712502494 0.0185477407 0.3718750281 0.0056265285 0.0060720385 0.3941403353 0.0327584682 0.0145961278 0.4836058173 0.0110798967 0.0004213735 0.4991043903 0.0699039768 0.0083566801 0.4980523536 0.0724711781 0.0178706035 0.4599312494 0.0038693872 0.0034109646 0.3336368422 0.0475520002 0.0272860173 0.3813966749 0.0722766973 0.0031760214 0.4704180284 0.0433201799 0.0240875662 0.4761884724 0.0538576941 0.0139940214 0.4054566208 0.0259215933 -0.0001630629 0.4274920278 0.0517073570 0.0007429914 0.4144807977 0.0065134417 0.0226743421 0.0263819298 0.0669532913 0.0080371026 0.4144760880 0.0407388299 0.0244941826 0.4911303611 0.0618570861 0.0105162863 0.4084560331 0.0547511220 0.0167069072 0.0956051132 0.0537486221 0.0003652640 0.1093108548 0.0094543270 0.0106545331 0.0945828192 0.0737882389 0.0042311312 0.0998551820 0.0375924112 0.0057852682 0.3845861925 0.0122206055 0.0065387140 0.4273756813 0.0118512743 0.0024818533 0.4399658914 0.0087074253 0.0001229769 0.3279491613 0.0229822818 0.0229019378 0.2936587011 0.0013880179 0.0262537126 0.4887383876 0.0470359007 0.0008195099 0.4041539519 0.0719842168 0.0203403129 0.3563876405 0.0625274804 0.0077512839 0.4490362531 0.0254182817 0.0140308610 0.3766036543 0.0099527345 0.0041605438 0.3016805564 0.0439004812 0.0073028869 0.3526353797 0.0271085590 0.0251493639 0.2785794562 0.0241011523 0.0249536254 0.0321977627 0.0722952205 0.0081321557 0.0724907390 0.1011412129 0.0045296062 0.0670654806 0.0465357617 0.0171349974 0.4607139134 0.0864509855 0.0111499441 0.1817568723 0.0327076109 0.0061418452 0.2081390377 0.0197516132 0.0001044848 0.0431757938 0.0537710283 0.0042995171 0.3120434621 0.0029070173 0.0165635465 0.3660989361 0.0167035525 0.0000266321 0.4243433917 0.0014630324 0.0112389084 0.4591506851 0.0461917477 0.0061424948 0.4125466291 0.0148545185 0.0070677258 0.3953330790 0.0094189828 0.0038005372 0.3751866884 0.0227896613 0.0085748824 0.4697450054 0.0724735576 0.0009377877 0.3654705477 0.0669908902 0.0163929226 0.3386561880 0.0433887990 0.0184312184 0.3963727574 0.0576577348 0.0002796751 0.2623808024 0.0423160653 0.0179992549 0.3697040181 0.0495653233 0.0248859200 0.4492138171 0.0055904878 0.0273761549 0.3573134332 0.0252848710 0.0275325422 0.3074104345 0.0566546526 0.0244546781 0.3813043058 0.0031613369 0.0219114208 0.3274983954 0.0550939571 0.0260594469 0.1755069079 0.0205504653 0.0112472423 0.0924047119 0.0436354810 0.0005541701 0.0905321166 0.0629956064 0.0002509167 0.0068176694 0.0488572362 0.0037284488 0.4131932587 0.0074285302 0.0085271126 0.4739776804 0.0312816741 0.0009863096 0.3462272574 0.0387849198 0.0092102783 0.3559257228 0.0230105349 0.0226733262 0.2270112950 0.0388819466 0.0227978220 0.3862603405 0.0363308188 0.0010315828 0.3911117269 0.0436891953 0.0085652897 0.3604441481 0.0559240875 0.0080502655 0.3687420025 0.0668767657 0.0119364557 0.3144610881 0.0802627677 0.0246594617 0.3898232578 0.0426511326 0.0182556924 0.3677680568 0.0597900802 0.0183397463 0.2688757485 0.0106926406 0.0229903234 0.1187429088 0.0721952349 0.0069843052 0.3276171485 0.0037136574 0.0077325724 0.3582165091 0.0113609866 0.0277539459 0.4787702585 0.0648979230 0.0143062682 0.1799254177 0.0305978366 0.0009602097 0.2138322992 0.0072542577 0.0095155571 0.0754919823 0.0472725844 0.0005501116 0.3586143534 0.0194377845 -0.0001105945 0.3743341903 0.0145543602 0.0043087568 0.4074438183 -0.0003002195 0.0004591520 0.3290345311 0.0289686006 0.0042022097 0.4405699337 0.0428664160 0.0002417135 0.3355979085 0.0230730988 0.0057795833 0.3486692068 0.0295429961 -0.0004687526 0.3613914046 0.0528781601 0.0048448585 0.4014730140 0.0591449685 0.0053435785 0.2962542586 0.0535807614 0.0185947560 0.4302977807 0.0715797585 0.0059883298 0.2940940581 0.0241618635 0.0037693464 0.4361549760 0.0609734630 0.0207964717 0.0131759086 0.0634925579 0.0076860648 0.1434366153 0.0333020552 0.0108355802 0.0939249997 0.0290852967 0.0129317715 0.0228008488 0.0914152469 0.0089370670 0.2971331712 0.1282682183 0.0255649544 0.1702253453 0.0181016323 0.0085662913 0.1140445389 0.0167031702 0.0005349722 0.1419198203 0.0173869085 0.0003243718 0.3646024314 0.0086434648 -0.0004011454 0.3538354653 0.0155369335 0.0103527500 0.3762532779 0.0009117019 0.0101915786 0.3857480450 0.0311942941 -0.0003194908 0.1631417810 0.0390982651 0.0271140053 0.4070437645 0.0423262658 0.0000191832 0.3516777327 0.0343536275 0.0037853678 0.4091353243 0.0877472703 0.0005139858 0.4350069269 0.0506185039 0.0163989062 0.2927042199 0.0614954184 0.0093362837 0.3508634472 0.0245609324 0.0196304430 0.3122543661 0.0416280597 0.0181193206 0.2397390113 0.0336190429 0.0238177811 0.2196969839 0.0639546550 0.0234401018 0.0414463441 0.0673996933 0.0087205620 0.2782385578 0.0116330650 0.0121377840 0.2208944005 0.0441891275 0.0225275256 0.0955285439 0.0508682298 0.0180763302 0.1086267897 0.0131673159 0.0050026862 0.2187829444 0.0355665600 0.0056680826 0.1542577310 0.0160587899 0.0004980191 0.3519379577 0.0019099238 0.0139153326 0.4220067479 -0.0000709431 0.0053337630 0.4127767084 -0.0002624446 0.0070496324 0.3624847192 0.0073663906 0.0067369193 0.3070790516 0.0224582601 0.0044181339 0.0622222152 0.0081283950 0.0042620815 0.0118102115 0.0527741916 0.0003166389 0.3606812780 0.0607858060 0.0095695930 0.4187234316 0.0859226115 0.0008938415 0.3582346308 0.0599319354 0.0003311398 0.3879129430 0.0660531193 0.0147274559 0.4109342254 0.0553176214 0.0218985135 0.4494843180 0.0890014745 0.0185338290 0.4284949479 0.0750697485 0.0257837601 0.0212888086 0.0449334456 0.0044736199 0.0845820249 0.0271870855 0.0125756797 0.4374832011 0.0378504774 0.0087512689 0.0929052187 0.0489049621 0.0118172128 0.1930680527 0.0354178932 0.0117076769 0.1862362735 0.0546805924 0.0082197208 0.1978155427 0.0422137830 0.0005912691 0.3570537739 0.0005512431 0.0042467762 0.3759249962 0.0113643435 0.0096984554 0.3834913746 0.0059423365 -0.0001929788 0.3796118145 0.0248770033 0.0033294703 0.3731616383 0.0402451921 -0.0002113161 0.3676840102 0.0162464837 0.0061635267 0.2920681967 0.0072488346 -0.0005040974 0.3874850309 0.0644451339 0.0000583805 0.4428972963 0.0359472559 0.0168766527 0.3624166068 0.0421658449 0.0130175883 0.4152256766 0.0173090998 0.0041363668 0.2884831801 0.0910759171 0.0209614731 0.2493923625 0.0030118967 -0.0003136230 0.3180315793 0.0662203375 0.0249728219 0.1658587661 0.0936740126 0.0280981904 0.3966890331 0.0588612902 0.0159743332 0.0415189268 0.0203000851 0.0152762981 0.4499817399 0.0607734334 0.0143731750 0.1844051535 0.0305386410 0.0002245693 0.1492906685 0.0329914066 0.0010223059 0.0788506459 0.0379386589 0.0007581545 0.3261204222 0.0240121316 0.0037532045 0.2901092232 0.0239433441 0.0125786360 0.3868962696 0.0055910494 0.0150918729 0.3248957247 0.0376100792 0.0000008743 0.4073867440 0.0833807510 0.0004463750 0.0808015799 0.0476941351 0.0081599676 0.3587725703 0.0095893106 -0.0002573979 0.4437847397 0.0735298094 0.0002887030 0.4823200900 0.0878872996 0.0012456424 0.3014754787 0.0669812783 0.0038222375 0.4806060795 0.0680674593 0.0091643287 0.3453717728 0.0544162042 0.0182100060 0.2408874377 0.0673260607 0.0121667722 0.2281156935 0.0648908322 0.0214513270 0.0775578780 0.0234018105 0.0004278282 0.2565115188 0.0655854697 0.0042334640 0.3512137042 0.1050666677 0.0193559400 0.4545429837 0.0665229406 0.0109749071 0.1876961278 0.0365705345 0.0085230178 0.1836853435 0.0585474412 0.0090072585 0.2086402489 0.0132583094 -0.0000871012 0.3235059674 0.0025510912 0.0199382757 0.0501726995 0.0414484523 0.0041702506 0.3127628206 0.0293231591 0.0057450235 0.3474635965 0.0348781493 -0.0002120763 0.3007227540 0.0240192654 0.0060113559 0.4299055883 0.0626773538 0.0003125731 0.3118614408 0.0471327575 0.0045909349 0.4402455681 0.0400172371 0.0149073107 0.4484472325 0.0847236359 0.0158618543 0.434
[...]
      <PointData Scalars="smoothLength">
        <DataArray type="Float32" Name="smoothLength" format="ascii">
 0.0065000000 0.0065000000 0.0065000000 0.0065000000 0.0065000000 0.0065000000 0.0065000000 0.0065000000 0.0065000000 0.0065000000 0.0065000000 0.0065000000 0.0065000000 0.0065000000 0.0065000000 0.0065000000 0.0065000000 0.0065000000 0.0065000000 0.0065000000 0.0065000000 0.0065000000 0.0065000000 0.0065000000 0.0065000000 0.0065000000 0.0065000000 0.0065000000 0.0065000000 0.0065000000 0.0065000000 0.0065000000 0.0065000000 0.0065000000 0.0065000000 0.0065000000 0.0065000000 0.0065000000 0.0065000000 0.0065000000 0.0065000000 0.0065000000 0.0065000000 0.0065000000 0.0065000000 0.0065000000 0.0065000000 0.0065000000 0.0065000000 0.0065000000 0.0065000000 0.0065000000 0.0065000000 0.0065000000 0.0065000000 0.0065000000 0.0065000000 0.0065000000 0.0065000000 0.0065000000 0.0065000000 0.0065000000 0.0065000000 0.0065000000 0.0065000000 0.0065000000 0.0065000000 0.0065000000 0.0065000000 0.0065000000 0.0065000000 0.0065000000 0.0065000000 0.0065000000 0.0065000000 0.0065000000 0.0065000000 0.0065000000 0.0065000000 0.0065000000 0.0065000000 0.0065000000 0.0065000000 0.0065000000 0.0065000000 0.0065000000 0.0065000000 0.0065000000 0.0065000000 0.0065000000 0.0065000000 0.0065000000 0.0065000000 0.0065000000 0.0065000000 0.0065000000 0.0065000000 0.0065000000 0.0065000000 0.0065000000 0.0065000000 0.0065000000 0.0065000000 0.0065000000 0.0065000000 0.0065000000 0.0065000000 0.0065000000 0.0065000000 0.0065000000 0.0065000000 0.0065000000 0.0065000000 0.0065000000 0.0065000000 0.0065000000 0.0065000000 0.0065000000 0.0065000000 0.0065000000 0.0065000000 0.0065000000 0.0065000000 0.0065000000 0.0065000000 0.0065000000 0.0065000000 0.0065000000 0.0065000000 0.0065000000 0.0065000000 0.0065000000 0.0065000000 0.0065000000 0.0065000000 0.0065000000 0.0065000000 0.0065000000 0.0065000000 0.0065000000 0.0065000000 0.0065000000 0.0065000000 0.0065000000 0.0065000000 0.0065000000 0.0065000000 0.0065000000 0.0065000000 0.0065000000 0.0065000000 0.0065000000 0.0065000000 0.0065000000 0.0065000000 0.0065000000 0.0065000000 0.0065000000 0.0065000000 0.0065000000 0.0065000000 0.0065000000 0.0065000000 0.0065000000 0.0065000000 0.0065000000 0.0065000000 0.0065000000 0.0065000000 0.0065000000 0.0065000000 0.0065000000 0.0065000000 0.0065000000 0.0065000000 0.0065000000 0.0065000000 0.0065000000 0.0065000000 0.0065000000 0.0065000000 0.0065000000 0.0065000000 0.0065000000 0.0065000000 0.0065000000 0.0065000000 0.0065000000 0.0065000000 0.0065000000 0.0065000000 0.0065000000 0.0065000000 0.0065000000 0.0065000000 0.0065000000 0.0065000000 0.0065000000 0.0065000000 0.0065000000 0.0065000000 0.0065000000 0.0065000000 0.0065000000 0.0065000000 0.0065000000 0.0065000000 0.0065000000 0.0065000000 0.0065000000 0.0065000000 0.0065000000 0.0065000000 0.0065000000 0.0065000000 0.0065000000 0.0065000000 0.0065000000 0.0065000000 0.0065000000 0.0065000000 0.0065000000 0.0065000000 0.0065000000 0.0065000000 0.0065000000 0.0065000000 0.0065000000 0.0065000000 0.0065000000 0.0065000000 0.0065000000 0.0065000000 0.0065000000 0.0065000000 0.0065000000 0.0065000000 0.0065000000 0.0065000000 0.0065000000 0.0065000000 0.0065000000 0.0065000000 0.0065000000 0.0065000000 0.0065000000 0.0065000000 0.0065000000 0.0065000000 0.0065000000 0.0065000000 0.0065000000 0.0065000000 0.0065000000 0.0065000000 0.0065000000 0.0065000000 0.0065000000 0.0065000000 0.0065000000 0.0065000000 0.0065000000 0.0065000000 0.0065000000 0.0065000000 0.0065000000 0.0065000000 0.0065000000 0.0065000000 0.0065000000 0.0065000000 0.0065000000 0.0065000000 0.0065000000 0.0065000000 0.0065000000 0.0065000000 0.0065000000 0.0065000000 0.0065000000 0.0065000000 0.0065000000 0.0065000000 0.0065000000 0.0065000000 0.0065000000 0.0065000000 0.0065000000 0.0065000000 0.0065000000 0.0065000000 0.0065000000 0.0065000000 0.0065000000 0.0065000000 0.0065000000 0.0065000000 0.0065000000 0.0065000000 0.0065000000 0.0065000000 0.0065000000 0.0065000000 0.0065000000 0.0065000000 0.0065000000 0.0065000000 0.0065000000 0.0065000000 0.0065000000 0.0065000000 0.0065000000 0.0065000000 0.0065000000 0.0065000000 0.0065000000 0.0065000000 0.0065000000 0.0065000000 0.0065000000 0.0065000000 0.0065000000 0.0065000000 0.0065000000 0.0065000000 0.0065000000 0.0065000000 0.0065000000 0.0065000000 0.0065000000 0.0065000000 0.0065000000 0.0065000000 0.0065000000 0.0065000000 0.0065000000 0.0065000000 0.0065000000 0.0065000000 0.0065000000 0.0065000000 0.0065000000 0.0065000000 0.0065000000 0.0065000000 0.0065000000 0.0065000000 0.0065000000 0.0065000000 0.0065000000 0.0065000000 0.0065000000 0.0065000000 0.0065000000 0.0065000000 0.0065000000 0.0065000000 0.0065000000 0.0065000000 0.0065000000 0.0065000000 0.0065000000 0.0065000000 0.0065000000 0.0065000000 0.0065000000 0.0065000000 0.0065000000 0.0065000000 0.0065000000 0.0065000000 0.0065000000 0.0065000000 0.0065000000 0.0065000000 0.0065000000 0.0065000000 0.0065000000 0.0065000000 0.0065000000 0.0065000000 0.0065000000 0.0065000000 0.0065000000 0.0065000000 0.0065000000 0.0065000000 0.0065000000 0.0065000000 0.0065000000 0.0065000000 0.0065000000 0.0065000000 0.0065000000 0.0065000000 0.0065000000 0.0065000000 0.0065000000 0.0065000000 0.0065000000 0.0065000000 0.0065000000 0.0065000000 0.0065000000 0.0065000000 0.0065000000 0.0065000000 0.0065000000 0.0065000000 0.0065000000 0.0065000000 0.0065000000 0.0065000000 0.0065000000 0.0065000000 0.0065000000 0.0065000000 0.0065000000 0.0065000000 0.0065000000 0.0065000000 0.0065000000 0.0065000000 0.0065000000 0.0065000000 0.0065000000 0.0065000000 0.0065000000 0.0065000000 0.0065000000 0.0065000000 0.0065000000 0.0065000000 0.0065000000 0.0065000000 0.0065000000 0.0065000000 0.0065000000 0.0065000000 0.0065000000 0.0065000000 0.0065000000 0.0065000000 0.0065000000 0.0065000000 0.0065000000 0.0065000000 0.0065000000 0.0065000000 0.0065000000 0.0065000000 0.0065000000 0.0065000000 0.0065000000 0.0065000000 0.0065000000 0.0065000000 0.0065000000 0.0065000000 0.0065000000 0.0065000000 0.0065000000 0.0065000000 0.0065000000 0.0065000000 0.0065000000 0.0065000000 0.0065000000 0.0065000000 0.0065000000 0.0065000000 0.0065000000 0.0065000000 0.0065000000 0.0065000000 0.0065000000 0.0065000000 0.0065000000 0.0065000000 0.0065000000 0.0065000000 0.0065000000 0.0065000000 0.0065000000 0.0065000000 0.0065000000 0.0065000000 0.0065000000 0.0065000000 0.0065000000 0.0065000000 0.0065000000 0.0065000000 0.0065000000 0.0065000000 0.0065000000 0.0065000000 0.0065000000 0.0065000000 0.0065000000 0.0065000000 0.0065000000 0.0065000000 0.0065000000 0.0065000000 0.0065000000 0.0065000000 0.0065000000 0.0065000000 0.0065000000 0.0065000000 0.0065000000 0.0065000000 0.0065000000 0.0065000000 0.0065000000 0.0065000000 0.0065000000 0.0065000000 0.0065000000 0.0065000000 0.0065000000 0.0065000000 0.0065000000 0.0065000000 0.0065000000 0.0065000000 0.0065000000 0.0065000000 0.0065000000 0.0065000000 0.0065000000 0.0065000000 0.0065000000 0.0065000000 0.0065000000 0.0065000000 0.0065000000 0.0065000000 0.0065000000 0.0065000000 0.0065000000 0.0065000000 0.0065000000 0.0065000000 0.0065000000 0.0065000000 0.0065000000 0.0065000000 0.0065000000 0.0065000000 0.0065000000 0.0065000000 0.0065000000 0.0065000000 0.0065000000 0.0065000000 0.0065000000 0.0065000000 0.0065000000 0.0065000000 0.0065000000 0.0065000000 0.0065000000 0.0065000000 0.0065000000 0.0065000000 0.0065000000 0.0065000000 0.0065000000 0.0065000000 0.0065000000 0.0065000000 0.0065000000 0.0065000000 0.0065000000 0.0065000000 0.0065000000 0.0065000000 0.0065000000 0.0065000000 0.0065000000 0.0065000000 0.0065000000 0.0065000000 0.0065000000 0.0065000000 0.0065000000 0.0065000000 0.0065000000 0.0065000000 0.0065000000 0.0065000000 0.0065000000 0.0065000000 0.0065000000 0.0065000000 0.0065000000 0.0065000000 0.0065000000 0.0065000000 0.0065000000 0.0065000000 0.0065000000 0.0065000000 0.0065000000 0.0065000000 0.0065000000 0.0065000000 0.0065000000 0.0065000000 0.0065000000 0.0065000000 0.0065000000 0.0065000000 0.0065000000 0.0065000000 0.0065000000 0.0065000000 0.0065000000 0.0065000000 0.0065000000 0.0065000000 0.0065000000 0.0065000000 0.0065000000 0.0065000000 0.0065000000 0.0065000000 0.0065000000 0.0065000000 0.0065000000 0.0065000000 0.0065000000 0.0065000000 0.0065000000 0.0065000000 0.0065000000 0.0065000000 0.0065000000 0.0065000000 0.0065000000 0.0065000000 0.0065000000 0.0065000000 0.0065000000 0.0065000000 0.0065000000 0.0065000000 0.0065000000 0.0065000000 0.0065000000 0.0065000000 0.0065000000 0.0065000000 0.0065000000 0.0065000000 0.0065000000 0.0065000000 0.0065000000 0.0065000000 0.0065000000 0.0065000000 0.0065000000 0.0065000000 0.0065000000 0.0065000000 0.0065000000 0.0065000000 0.0065000000 0.0065000000 0.0065000000 0.0065000000 0.0065000000 0.0065000000 0.0065000000 0.0065000000 0.0065000000 0.0065000000 0.0065000000 0.0065000000 0.0065000000 0.0065000000 0.0065000000 0.0065000000 0.0065000000 0.0065000000 0.0065000000 0.0065000000 0.0065000000 0.0065000000 0.0065000000 0.0065000000 0.0065000000 0.0065000000 0.0065000000 0.0065000000 0.0065000000 0.0065000000 0.0065000000 0.0065000000 0.0065000000 0.0065000000 0.0065000000 0.0065000000 0.0065000000 0.0065000000 0.0065000000 0.0065000000 0.0065000000 0.0065000000 0.0065000000 0.0065000000 0.0065000000 0.0065000000 0.0065000000 0.0065000000 0.0065000000 0.0065000000 0.0065000000 0.0065000000 0.0065000000 0.0065000000 0.0065000000 0.0065000000 0.0065000000 0.0065000000 0.0065000000 0.0065000000 0.0065000000 0.0065000000 0.0065000000 0.0065000000 0.0065000000 0.0065000000 0.0065000000 0.0065000000 0.0065000000 0.0065000000 0.0065000000 0.0065000000 0.0065000000 0.0065000000 0.0065000000 0.0065000000 0.0065000000 0.0065000000 0.0065000000 0.0065000000 0.0065000000 0.0065000000 0.0065000000 0.0065000000 0.0065000000 0.0065000000 0.0065000000 0.0065000000 0.0065000000 0.0065000000 0.0065000000 0.0065000000 0.0065000000 0.0065000000 0.0065000000 0.0065000000 0.0065000000 0.0065000000 0.0065000000 0.0065000000 0.0065000000 0.0065000000 0.0065000000 0.0065000000 0.0065000000 0.0065000000 0.0065000000 0.0065000000 0.0065000000 0.0065000000 0.0065000000 0.0065000000 0.0065000000 0.0065000000 0.0065000000 0.0065000000 0.0065000000 0.0065000000 0.0065000000 0.0065000000 0.0065000000 0.0065000000 0.0065000000 0.0065000000 0.0065000000 0.0065000000 0.0065000000 0.0065000000 0.0065000000 0.0065000000 0.0065000000 0.0065000000 0.0065000000 0.0065000000 0.0065000000 0.0065000000 0.0065000000 0.0065000000 0.0065000000 0.0065000000 0.0065000000 0.0065000000 0.0065000000 0.0065000000 0.0065000000 0.0065000000 0.0065000000 0.0065000000 0.0065000000 0.0065000000 0.0065000000 0.0065000000 0.0065000000 0.0065000000 0.0065000000 0.0065000000 0.0065000000 0.0065000000 0.0065000000 0.0065000000 0.0065000000 0.0065000000 0.0065000000 0.0065000000 0.0065000000 0.0065000000 0.0065000000 0.0065000000 0.0065000000 0.0065000000 0.0065000000 0.0065000000 0.0065000000 0.0065000000 0.0065000000 0.0065000000 0.0065000000 0.0065000000 0.0065000000 0.0065000000 0.0065000000 0.0065000000 0.0065000000 0.0065000000 0.0065000000 0.0065000000 0.0065000000 0.0065000000 0.0065000000 0.0065000000 0.0065000000 0.0065000000 0.0065000000 0.0065000000 0.0065000000 0.0065000000 0.0065000000 0.0065000000 0.0065000000 0.0065000000 0.0065000000 0.0065000000 0.0065000000 0.0065000000 0.0065000000 0.0065000000 0.0065000000 0.0065000000 0.0065000000 0.0065000000 0.0065000000 0.0065000000 0.0065000000 0.0065000000 0.0065000000 0.0065000000 0.0065000000 0.0065000000 0.0065000000 0.0065000000 0.0065000000 0.0065000000 0.0065000000 0.0065000000 0.0065000000 0.0065000000 0.0065000000 0.0065000000 0.0065000000 0.0065000000 0.0065000000 0.0065000000 0.0065000000 0.0065000000 0.0065000000 0.0065000000 0.0065000000 0.0065000000 0.0065000000 0.0065000000 0.0065000000 0.0065000000 0.0065000000 0.0065000000 0.0065000000 0.0065000000 0.0065000000 0.0065000000 0.0065000000 0.0065000000 0.0065000000 0.0065000000 0.0065000000 0.0065000000 0.0065000000 0.0065000000 0.0065000000 0.0065000000 0.0065000000 0.0065000000 0.0065000000 0.0065000000 0.0065000000 0.0065000000 0.0065000000 0.0065000000 0.0065000000 0.0065000000 0.0065000000 0.0065000000 0.0065000000 0.0065000000 0.0065000000 0.0065000000 0.0065000000 0.0065000000 0.0065000000 0.0065000000 0.0065000000 0.0065000000 0.0065000000 0.0065000000 0.0065000000 0.0065000000 0.0065000000 0.0065000000 0.0065000000 0.0065000000 0.0065000000 0.0065000000 0.0065000000 0.0065000000 0.0065000000 0.0065000000 0.0065000000 0.0065000000 0.0065000000 0.0065000000 0.0065000000 0.0065000000 0.0065000000 0.0065000000 0.0065000000 0.0065000000 0.0065000000 0.0065000000 0.0065000000 0.0065000000 0.0065000000 0.0065000000 0.0065000000 0.0065000000 0.0065000000 0.0065000000 0.0065000000 0.0065000000 0.0065000000 0.0065000000 0.0065000000 0.0065000000 0.0065000000 0.0065000000 0.0065000000 0.0065000000 0.0065000000 0.0065000000 0.0065000000 0.0065000000 0.0065000000 0.0065000000 0.0065000000 0.0065000000 0.0065000000 0.0065000000 0.0065000000 0.0065000000 0.0065000000 0.0065000000 0.0065000000 0.0065000000 0.0065000000 0.0065000000 0.0065000000 0.0065000000 0.0065000000 0.0065000000 0.0065000000 0.0065000000 0.0065000000 0.0065000000 0.0065000000 0.0065000000 0.0065000000 0.0065000000 0.0065000000 0.0065000000 0.0065000000 0.0065000000 0.0065000000 0.0065000000 0.0065000000 0.0065000000 0.0065000000 0.0065000000 0.0065000000 0.0065000000 0.0065000000 0.0065000000 0.0065000000 0.0065000000 0.0065000000 0.0065000000 0.0065000000 0.0065000000 0.0065000000 0.0065000000 0.0065000000 0.0065000000 0.0065000000 0.0065000000 0.0065000000 0.0065000000 0.0065000000 0.0065000000 0.0065000000 0.0065000000 0.0065000000 0.0065000000 0.0065000000 0.0065000000 0.0065000000 0.0065000000 0.0065000000 0.0065000000 0.0065000000 0.0065000000 0.0065000000 0.0065000000 0.0065000000 0.0065000000 0.0065000000 0.0065000000 0.0065000000 0.0065000000 0.0065000000 0.0065000000 0.0065000000 0.0065000000 0.0065000000 0.0065000000 0.0065000000 0.0065000000 0.0065000000 0.0065000000 0.0065000000 0.0065000000 0.0065000000 0.0065000000 0.0065000000 0.0065000000 0.0065000000 0.0065000000 0.0065000000 0.0065000000 0.0065000000 0.0065000000 0.0065000000 0.0065000000 0.0065000000 0.0065000000 0.0065000000 0.0065000000 0.0065000000 0.0065000000 0.0065000000 0.0065000000 0.0065000000 0.0065000000 0.0065000000 0.0065000000 0.0065000000 0.0065000000 0.0065000000 0.0065000000 0.0065000000 0.0065000000 0.0065000000 0.0065000000 0.0065000000 0.0065000000 0.0065000000 0.0065000000 0.0065000000 0.0065000000 0.0065000000 0.0065000000 0.0065000000 0.0065000000 0.0065000000 0.0065000000 0.0065000000 0.0065000000 0.0065000000 0.0065000000 0.0065000000 0.0065000000 0.0065000000 0.0065000000 0.0065000000 0.0065000000 0.0065000000 0.0065000000 0.0065000000 0.0065000000 0.0065000000 0.0065000000 0.0065000000 0.0065000000 0.0065000000 0.0065000000 0.0065000000 0.0065000000 0.0065000000 0.0065000000 0.0065000000 0.0065000000 0.0065000000 0.0065000000 0.0065000000 0.0065000000 0.0065000000 0.0065000000 0.0065000000 0.0065000000 0.0065000000 0.0065000000 0.0065000000 0.0065000000 0.0065000000 0.0065000000 0.0065000000 0.0065000000 0.0065000000 0.0065000000 0.0065000000 0.0065000000 0.0065000000 0.0065000000 0.0065000000 0.0065000000 0.0065000000 0.0065000000 0.0065000000 0.0065000000 0.0065000000 0.0065000000 0.0065000000 0.0065000000 0.0065000000 0.0065000000 0.0065000000 0.0065000000 0.0065000000 0.0065000000 0.0065000000 0.0065000000 0.0065000000 0.0065000000 0.0065000000 0.0065000000 0.0065000000 0.0065000000 0.0065000000 0.0065000000 0.0065000000 0.0065000000 0.0065000000 0.0065000000 0.0065000000 0.0065000000 0.0065000000 0.0065000000 0.0065000000 0.0065000000 0.0065000000 0.0065000000 0.0065000000 0.0065000000 0.0065000000 0.0065000000 0.0065000000 0.0065000000 0.0065000000 0.0065000000 0.0065000000 0.0065000000 0.0065000000 0.0065000000 0.0065000000 0.0065000000 0.0065000000 0.0065000000 0.0065000000 0.0065000000 0.0065000000 0.0065000000 0.0065000000 0.0065000000 0.0065000000 0.0065000000 0.0065000000 0.0065000000 0.0065000000 0.0065000000 0.0065000000 0.0065000000 0.0065000000 0.0065000000 0.0065000000 0.0065000000 0.0065000000 0.0065000000 0.0065000000 0.0065000000 0.0065000000 0.0065000000 0.0065000000 0.0065000000 0.0065000000 0.0065000000 0.0065000000 0.0065000000 0.0065000000 0.0065000000 0.0065000000 0.0065000000 0.0065000000 0.0065000000 0.0065000000 0.0065000000 0.0065000000 0.0065000000 0.0065000000 0.0065000000 0.0065000000 0.0065000000 0.0065000000 0.0065000000 0.0065000000 0.0065000000 0.0065000000 0.0065000000 0.0065000000 0.0065000000 0.0065000000 0.0065000000 0.0065000000 0.0065000000 0.0065000000 0.0065000000 0.0065000000 0.0065000000 0.0065000000 0.0065000000 0.0065000000 0.0065000000 0.0065000000 0.0065000000 0.0065000000 0.0065000000 0.0065000000 0.0065000000 0.0065000000 0.0065000000 0.0065000000 0.0065000000 0.0065000000 0.0065000000 0.0065000000 0.0065000000 0.0065000000 0.0065000000 0.0065000000 0.0065000000 0.0065000000 0.0065000000 0.0065000000 0.0065000000 0.0065000000 0.0065000000 0.0065000000 0.0065000000 0.0065000000 0.0065000000 0.0065000000 0.0065000000 0.0065000000 0.0065000000 0.0065000000 0.0065000000 0.0065000000 0.0065000000 0.0065000000 0.0065000000 0.0065000000 0.0065000000 0.0065000000 0.0065000000 0.0065000000 0.0065000000 0.0065000000 0.0065000000 0.0065000000 0.0065000000 0.0065000000 0.0065000000 0.0065000000 0.0065000000 0.0065000000 0.0065000000 0.0065000000 0.0065000000 0.0065000000 0.0065000000 0.0065000000 0.0065000000 0.0065000000 0.0065000000 0.0065000000 0.0065000000 0.0065000000 0.0065000000 0.0065000000 0.0065000000 0.0065000000 0.0065000000 0.0065000000 0.0065000000 0.0065000000 0.0065000000 0.0065000000 0.0065000000 0.0065000000 0.0065000000 0.0065000000 0.0065000000 0.0065000000 0.0065000000 0.0065000000 0.0065000000 0.0065000000 0.0065000000 0.0065000000 0.0065000000 0.0065000000 0.0065000000 0.0065000000 0.0065000000 0.0065000000 0.0065000000 0.0065000000 0.0065000000 0.0065000000 0.0065000000 0.0065000000 0.0065000000 0.0065000000 0.0065000000 0.0065000000 0.0065000000 0.0065000000 0.0065000000 0.0065000000 0.0065000000 0.0065000000 0.0065000000 0.0065000000 0.0065000000 0.0065000000 0.0065000000 0.0065000000 0.0065000000 0.0065000000 0.0065000000 0.0065000000 0.0065000000 0.0065000000 0.0065000000 0.0065000000 0.0065000000 0.0065000000 0.0065000000 0.0065000000 0.0065000000 0.0065000000 0.0065000000 0.0065000000 0.0065000000 0.0065000000 0.0065000000 0.0065000000 0.0065000000 0.0065000000 0.0065000000 0.0065000000 0.0065000000 0.0065000000 0.0065000000 0.0065000000 0.0065000000 0.0065000000 0.0065000000 0.0065000000 0.0065000000 0.0065000000 0.0065000000 0.0065000000 0.0065000000 0.0065000000 0.0065000000 0.0065000000 0.0065000000 0.0065000000 0.0065000000 0.0065000000 0.0065000000 0.0065000000 0.0065000000 0.0065000000 0.0065000000 0.0065000000 0.0065000000 0.0065000000 0.0065000000 0.0065000000 0.0065000000 0.0065000000 0.0065000000 0.0065000000 0.0065000000 0.0065000000 0.0065000000 0.0065000000 0.0065000000 0.0065000000 0.0065000000 0.0065000000 0.0065000000 0.0065000000 0.0065000000 0.0065000000 0.0065000000 0.0065000000 0.0065000000 0.0065000000 0.0065000000 0.0065000000 0.0065000000 0.0065000000 0.0065000000 0.0065000000 0.0065000000 0.0065000000 0.0065000000 0.0065000000 0.0065000000 0.0065000000 0.0065000000 0.0065000000 0.0065000000 0.0065000000 0.0065000000 0.0065000000 0.0065000000 0.0065000000 0.0065000000 0.0065000000 0.0065000000 0.0065000000 0.0065000000 0.0065000000 0.0065000000 0.0065000000 0.0065000000 0.0065000000 0.0065000000 0.0065000000 0.0065000000 0.0065000000 0.0065000000 0.0065000000 0.0065000000 0.0065000000 0.0065000000 0.0065000000 0.0065000000 0.0065000000 0.0065000000 0.0065000000 0.0065000000 0.006500000